ITEM: TIMESTEP
570000
ITEM: NUMBER OF ATOMS
6793
ITEM: BOX BOUNDS ff ff ff
-8.9999999999999997e-02 8.9999999999999997e-02
-8.9999999999999997e-02 8.9999999999999997e-02
-4.0000000000000001e-02 4.0000000000000001e-02
ITEM: ATOMS id type radius x y z fx fy fz c_bendingE c_stretchingE
3385 1 0.000635 0.000124231 -0.015228 -0.00592047 -1.86166e-11 4.65688e-10 2.32365e-09 5.1925e-10 2.84061e-11
3471 1 0.000635 0.00121795 -0.01585 -0.00574965 -4.4922e-10 1.30273e-09 6.06193e-09 5.49218e-10 6.36839e-11
3558 1 0.000635 0.00231541 -0.0152116 -0.00575246 2.34273e-10 -3.06959e-10 -2.44896e-09 4.45764e-11 6.42584e-11
3213 1 0.000635 -0.00207098 -0.0139591 -0.00599895 -1.06735e-11 4.85619e-11 1.95119e-10 7.9976e-10 1.36472e-10
3299 1 0.000635 -0.000973427 -0.0145953 -0.00599133 5.63987e-12 3.92128e-12 7.21384e-10 7.76263e-10 6.15432e-11
3386 1 0.000635 0.00012681 -0.0139687 -0.00608817 -1.12043e-11 1.4255e-10 1.06598e-09 6.05362e-10 1.51299e-11
3472 1 0.000635 0.00122419 -0.0145959 -0.00595924 3.43378e-10 -4.74626e-10 -4.42621e-09 2.60533e-10 5.35461e-11
3559 1 0.000635 0.00232241 -0.0139583 -0.00596717 -2.00916e-10 4.66891e-10 2.40278e-09 7.81959e-11 1.34267e-10
3645 1 0.000635 0.00341291 -0.0145737 -0.00575369 2.56399e-10 -4.13547e-10 -2.61962e-09 1.31444e-11 3.51515e-11
3732 1 0.000635 0.00451349 -0.013942 -0.00578532 2.07194e-11 1.19788e-10 6.04853e-10 1.10367e-11 2.18331e-11
3041 1 0.000635 -0.00426668 -0.0126877 -0.00598512 -1.27062e-10 -1.04273e-10 -8.03623e-10 4.71287e-10 4.20334e-11
3127 1 0.000635 -0.00316822 -0.0133228 -0.00598989 -1.20976e-10 -8.32843e-11 -5.8465e-10 5.70059e-10 1.09387e-10
3214 1 0.000635 -0.0020727 -0.0127 -0.006156 -5.84872e-05 3.99056e-05 -2.35908e-06 6.72099e-10 3.49146e-11
3300 1 0.000635 -0.000973078 -0.0133349 -0.0061414 -2.86699e-11 -7.35349e-11 -7.12574e-10 4.90733e-10 2.37557e-11
3387 1 0.000635 0.000127 -0.0127 -0.006156 -3.89786e-06 -3.78485e-05 1.23268e-06 6.38192e-11 4.42657e-12
3473 1 0.000635 0.00122656 -0.0133343 -0.00611158 3.72325e-11 -1.42633e-10 -2.24893e-09 6.1518e-11 2.23103e-11
3560 1 0.000635 0.0023267 -0.0127 -0.006156 3.36831e-05 -0.00018718 3.8789e-05 1.0415e-10 1.13659e-10
3646 1 0.000635 0.00342076 -0.0133228 -0.00597818 1.50987e-10 -2.09109e-10 -1.44789e-09 9.78358e-11 6.14314e-11
3733 1 0.000635 0.0045219 -0.0126913 -0.00600672 -1.22845e-10 4.62902e-10 3.03822e-09 7.55401e-11 8.86099e-12
3819 1 0.000635 0.00561585 -0.0133141 -0.00583568 -3.8205e-11 4.32424e-10 2.49561e-09 1.30814e-11 8.70545e-12
3905 1 0.000635 0.0067181 -0.0126857 -0.00588617 1.73354e-10 -1.56381e-10 -1.26807e-09 4.52131e-11 1.6045e-11
2870 1 0.000635 -0.0064656 -0.0114194 -0.00599225 -2.03645e-10 -1.40138e-10 -1.45441e-09 3.74764e-10 1.43328e-11
2955 1 0.000635 -0.00536588 -0.0120533 -0.00598627 -2.42161e-10 -3.00998e-10 -1.90894e-09 4.08682e-10 1.79688e-11
3042 1 0.000635 -0.00427241 -0.01143 -0.006156 -1.91463e-06 3.89175e-05 -4.13138e-06 3.2613e-10 7.45836e-12
3128 1 0.000635 -0.00317256 -0.012065 -0.006156 -2.23293e-05 5.89928e-05 -6.01544e-06 4.19469e-10 2.66699e-11
3215 1 0.000635 -0.0020727 -0.01143 -0.006156 1.91309e-08 -5.94897e-08 -2.89284e-06 7.96408e-11 5.17148e-36
3301 1 0.000635 -0.000972852 -0.012065 -0.006156 3.2184e-08 4.78094e-07 -2.80077e-06 7.11123e-11 1.4187e-15
3388 1 0.000635 0.000127 -0.01143 -0.006156 1.67412e-09 -1.69407e-21 -5.98001e-07 6.76326e-12 5.17148e-36
3474 1 0.000635 0.00122685 -0.012065 -0.006156 -2.01746e-08 -1.6381e-06 -1.80978e-06 6.71046e-11 1.10527e-14
3561 1 0.000635 0.0023267 -0.01143 -0.006156 1.44686e-08 -4.04473e-08 -2.97822e-06 8.54161e-11 5.17148e-36
3647 1 0.000635 0.00342656 -0.012065 -0.006156 2.55051e-05 -3.02612e-05 1.04928e-05 8.65082e-11 5.21343e-12
3734 1 0.000635 0.00452641 -0.01143 -0.006156 1.10597e-05 -1.11277e-05 5.79193e-06 6.39787e-11 8.71375e-13
3820 1 0.000635 0.00562293 -0.0120592 -0.00603252 -2.11492e-11 2.42461e-10 1.71397e-09 5.66426e-11 3.45905e-12
3906 1 0.000635 0.00672376 -0.0114266 -0.00605665 6.66065e-11 5.55347e-11 3.38762e-10 6.52942e-11 9.3828e-12
3991 1 0.000635 0.00781964 -0.0120551 -0.00592721 2.31148e-10 -1.46527e-10 -1.63227e-09 3.41646e-10 4.11363e-11
4077 1 0.000635 0.00891611 -0.0114146 -0.00589612 5.43079e-11 2.10667e-11 -1.42821e-09 3.31232e-10 1.0617e-11
2785 1 0.000635 -0.00756561 -0.0107859 -0.00600154 -1.34956e-10 6.09623e-11 -1.13786e-10 3.57519e-10 2.27671e-11
2956 1 0.000635 -0.00537226 -0.010795 -0.006156 1.45535e-05 2.46457e-05 -3.11177e-06 2.85669e-10 2.6117e-12
3129 1 0.000635 -0.00317256 -0.010795 -0.006156 -7.58493e-09 -5.31264e-08 -2.96342e-06 8.34544e-11 6.46435e-36
3302 1 0.000635 -0.000972852 -0.010795 -0.006156 1.99065e-09 1.69407e-21 -1.28707e-07 3.13241e-13 5.17148e-36
3475 1 0.000635 0.00122685 -0.010795 -0.006156 2.57361e-09 0 -3.91721e-07 2.90109e-12 5.17148e-36
3648 1 0.000635 0.00342656 -0.010795 -0.006156 3.63015e-08 -2.56661e-08 -2.65668e-06 6.92084e-11 1.0343e-35
3821 1 0.000635 0.00562626 -0.010795 -0.006156 6.34064e-06 -1.5509e-05 4.75106e-06 4.64091e-11 9.00417e-13
3992 1 0.000635 0.00782442 -0.0107932 -0.00607975 2.7709e-10 -4.62483e-10 -5.39143e-09 2.17355e-10 2.80485e-11
2615 1 0.000635 -0.00976575 -0.00951878 -0.00602224 -2.16445e-12 1.96239e-10 1.33967e-09 3.81101e-10 6.11029e-11
2700 1 0.000635 -0.00866572 -0.0101524 -0.00601251 -1.28869e-11 2.60052e-10 1.2358e-09 3.54573e-10 4.06199e-11
2786 1 0.000635 -0.00757197 -0.009525 -0.006156 4.35305e-05 7.46994e-06 -2.67942e-06 2.48441e-10 1.29932e-11
2871 1 0.000635 -0.00647211 -0.01016 -0.006156 2.94531e-05 1.49583e-05 -2.74995e-06 2.64283e-10 5.38337e-12
2957 1 0.000635 -0.00537226 -0.009525 -0.006156 -3.54256e-08 -3.61142e-08 -2.86017e-06 7.7884e-11 3.74932e-35
3043 1 0.000635 -0.00427241 -0.01016 -0.006156 -2.44605e-08 -4.51812e-08 -2.95245e-06 8.28664e-11 2.71503e-35
3130 1 0.000635 -0.00317256 -0.009525 -0.006156 2.0671e-17 0 2.16e-11 1.05285e-24 6.46435e-36
3216 1 0.000635 -0.0020727 -0.01016 -0.006156 -6.77626e-21 0 2.16e-11 0 5.17148e-36
3303 1 0.000635 -0.000972852 -0.009525 -0.006156 0 0 2.16e-11 0 5.17148e-36
3389 1 0.000635 0.000127 -0.01016 -0.006156 0 0 2.16e-11 0 5.17148e-36
3476 1 0.000635 0.00122685 -0.009525 -0.006156 0 0 2.16e-11 0 5.17148e-36
3562 1 0.000635 0.0023267 -0.01016 -0.006156 0 0 2.16e-11 0 5.17148e-36
3649 1 0.000635 0.00342656 -0.009525 -0.006156 4.13115e-17 0 2.16e-11 0 1.0343e-35
3735 1 0.000635 0.00452641 -0.01016 -0.006156 3.18699e-08 -1.3721e-08 -2.19265e-06 4.74312e-11 3.10289e-35
3822 1 0.000635 0.00562626 -0.009525 -0.006156 2.59617e-08 -5.88489e-09 -1.76122e-06 3.10267e-11 3.74932e-35
3907 1 0.000635 0.00672611 -0.01016 -0.006156 2.92031e-06 -2.68766e-05 3.6926e-06 4.78334e-11 2.94133e-12
3993 1 0.000635 0.00782597 -0.009525 -0.006156 -6.70293e-06 -2.42001e-05 1.01285e-06 1.31394e-10 3.84397e-12
4078 1 0.000635 0.00892416 -0.0101568 -0.00607057 3.37324e-11 -4.6836e-11 -1.75003e-09 3.58417e-10 1.75653e-11
4164 1 0.000635 0.0100171 -0.00951428 -0.00598407 -1.86513e-10 1.83667e-10 3.17079e-10 3.78408e-10 4.82188e-11
2277 1 0.000635 -0.0141543 -0.00825053 -0.00581564 2.19507e-10 1.51876e-10 9.66126e-10 8.63827e-10 5.97457e-11
2361 1 0.000635 -0.0130472 -0.00886781 -0.00576816 3.33536e-10 8.14091e-10 2.6484e-09 1.10097e-09 1.04821e-10
2446 1 0.000635 -0.011967 -0.00825279 -0.00602607 -7.46217e-11 3.87733e-11 -7.33324e-10 5.7667e-10 9.50022e-12
2530 1 0.000635 -0.0108661 -0.00888582 -0.00602967 1.85979e-10 5.47774e-10 2.73321e-09 5.04788e-10 2.91222e-11
2616 1 0.000635 -0.00977167 -0.008255 -0.006156 2.02796e-05 -3.2535e-05 3.33202e-06 1.95477e-10 1.31188e-11
2701 1 0.000635 -0.00867182 -0.00889 -0.006156 5.54395e-05 -1.94145e-07 -2.61922e-06 2.27373e-10 2.34256e-11
2787 1 0.000635 -0.00757197 -0.008255 -0.006156 -4.5326e-08 -1.85352e-08 -2.54261e-06 6.16688e-11 4.0079e-35
2872 1 0.000635 -0.00647211 -0.00889 -0.006156 -4.19657e-08 -2.67515e-08 -2.7106e-06 7.00668e-11 3.74932e-35
2958 1 0.000635 -0.00537226 -0.008255 -0.006156 1.44607e-16 -7.15799e-17 2.16e-11 5.26426e-25 4.0079e-35
3044 1 0.000635 -0.00427241 -0.00889 -0.006156 -1.03289e-16 -4.76841e-17 2.16e-11 1.05285e-24 2.71503e-35
3131 1 0.000635 -0.00317256 -0.008255 -0.006156 3.09912e-17 -7.75431e-17 2.16e-11 5.26426e-25 1.87466e-35
3217 1 0.000635 -0.0020727 -0.00889 -0.006156 -3.38813e-21 -4.76866e-17 2.16e-11 0 5.17148e-36
3304 1 0.000635 -0.000972852 -0.008255 -0.006156 0 -7.15833e-17 2.16e-11 0 1.0343e-35
3390 1 0.000635 0.000127 -0.00889 -0.006156 0 -4.76866e-17 2.16e-11 0 5.17148e-36
3477 1 0.000635 0.00122685 -0.008255 -0.006156 0 -7.15833e-17 2.16e-11 0 1.0343e-35
3563 1 0.000635 0.0023267 -0.00889 -0.006156 0 -4.76858e-17 2.16e-11 0 5.17148e-36
3650 1 0.000635 0.00342656 -0.008255 -0.006156 4.13098e-17 -7.15825e-17 2.16e-11 0 1.0343e-35
3736 1 0.000635 0.00452641 -0.00889 -0.006156 4.13115e-17 -4.76841e-17 2.16e-11 0 3.10289e-35
3823 1 0.000635 0.00562626 -0.008255 -0.006156 -1.446e-16 -7.15791e-17 2.16e-11 0 4.0079e-35
3908 1 0.000635 0.00672611 -0.00889 -0.006156 1.22877e-08 -1.46947e-08 -1.62948e-06 2.52788e-11 1.68073e-35
3994 1 0.000635 0.00782597 -0.008255 -0.006156 -8.52558e-09 -3.83475e-08 -2.18967e-06 5.23069e-11 1.0343e-35
4079 1 0.000635 0.00892582 -0.00889 -0.006156 -4.8501e-05 4.40477e-05 -8.92213e-06 2.68632e-10 1.58234e-11
4165 1 0.000635 0.0100257 -0.008255 -0.006156 0.000128288 -7.04414e-06 3.11198e-05 3.67721e-10 8.41697e-11
4250 1 0.000635 0.0110861 -0.00885577 -0.00579712 -1.05527e-09 8.18225e-10 3.39565e-09 4.10309e-10 4.28086e-11
2278 1 0.000635 -0.0141555 -0.00698157 -0.00583392 2.75104e-10 8.96492e-11 1.19291e-09 7.54504e-10 7.74469e-11
2362 1 0.000635 -0.0130669 -0.00761793 -0.00599077 -1.17154e-10 6.87196e-11 -1.34759e-09 5.75752e-10 1.82925e-11
2447 1 0.000635 -0.0119706 -0.00698475 -0.00609675 -6.24175e-11 1.01813e-10 1.5451e-10 1.23256e-10 8.25838e-12
2531 1 0.000635 -0.0108714 -0.00762002 -0.00613599 -4.8066e-11 1.04382e-10 -4.90922e-10 1.56458e-10 1.81751e-12
2617 1 0.000635 -0.00977167 -0.006985 -0.006156 -3.39623e-06 -1.9321e-06 -1.85936e-06 4.05994e-11 6.74404e-14
2702 1 0.000635 -0.00867182 -0.00762 -0.006156 -4.97409e-08 -6.96802e-09 -2.37951e-06 5.39263e-11 2.9736e-35
2788 1 0.000635 -0.00757197 -0.006985 -0.006156 1.44605e-16 -2.38958e-17 2.16e-11 0 4.0079e-35
2873 1 0.000635 -0.00647211 -0.00762 -0.006156 -1.44609e-16 2.38967e-17 2.16e-11 0 4.0079e-35
2959 1 0.000635 -0.00537226 -0.006985 -0.006156 1.44605e-16 -2.38958e-17 2.16e-11 0 4.0079e-35
3045 1 0.000635 -0.00427241 -0.00762 -0.006156 -1.13623e-16 2.98573e-17 2.16e-11 0 2.90896e-35
3132 1 0.000635 -0.00317256 -0.006985 -0.006156 3.09912e-17 -2.98573e-17 2.16e-11 0 1.87466e-35
3218 1 0.000635 -0.0020727 -0.00762 -0.006156 -1.69407e-21 2.38958e-17 2.16e-11 0 1.0343e-35
3305 1 0.000635 -0.000972852 -0.006985 -0.006156 0 -2.38967e-17 2.16e-11 0 1.0343e-35
3391 1 0.000635 0.000127 -0.00762 -0.006156 0 2.38967e-17 2.16e-11 0 1.0343e-35
3478 1 0.000635 0.00122685 -0.006985 -0.006156 0 -2.38967e-17 2.16e-11 0 1.0343e-35
3564 1 0.000635 0.0023267 -0.00762 -0.006156 0 2.38967e-17 2.16e-11 0 1.0343e-35
3651 1 0.000635 0.00342656 -0.006985 -0.006156 4.13081e-17 -2.38967e-17 2.16e-11 0 1.0343e-35
3737 1 0.000635 0.00452641 -0.00762 -0.006156 4.13217e-17 2.38958e-17 2.16e-11 0 2.06859e-35
3824 1 0.000635 0.00562626 -0.006985 -0.006156 -1.44599e-16 -2.3895e-17 2.16e-11 0 4.0079e-35
3909 1 0.000635 0.00672611 -0.00762 -0.006156 6.19757e-17 2.38958e-17 2.16e-11 0 2.9736e-35
3995 1 0.000635 0.00782597 -0.006985 -0.006156 -6.77626e-21 -2.38967e-17 2.16e-11 0 1.0343e-35
4080 1 0.000635 0.00892582 -0.00762 -0.006156 -2.91944e-08 -7.58338e-08 -3.91745e-06 2.03993e-10 1.0343e-35
4166 1 0.000635 0.0100257 -0.006985 -0.006156 -3.85324e-05 2.21259e-05 -6.91015e-06 3.06334e-10 9.12314e-12
4251 1 0.000635 0.0111229 -0.00761698 -0.00606949 -7.69343e-11 1.76581e-11 2.30977e-10 4.2463e-10 1.11852e-10
4336 1 0.000635 0.0122085 -0.00697087 -0.00592814 -1.03658e-10 -1.47132e-10 1.60368e-10 4.49197e-10 4.73207e-11
2279 1 0.000635 -0.0141453 -0.00571268 -0.00579266 4.73106e-10 -2.35533e-11 1.77511e-09 3.34353e-11 3.83243e-11
2363 1 0.000635 -0.0130656 -0.00634853 -0.00599878 -6.74048e-10 6.65342e-11 -5.22648e-09 1.17795e-10 3.14917e-11
2448 1 0.000635 -0.0119709 -0.00571508 -0.00612189 -5.35417e-11 4.29445e-11 -1.667e-10 5.25067e-11 1.61598e-11
2532 1 0.000635 -0.0108715 -0.00635 -0.006156 -2.80684e-05 -2.42171e-05 1.59453e-06 3.56952e-11 4.69466e-12
2618 1 0.000635 -0.00977167 -0.005715 -0.006156 -8.15998e-10 1.41335e-09 -5.22329e-07 5.15907e-12 6.85221e-35
2703 1 0.000635 -0.00867182 -0.00635 -0.006156 -3.30202e-10 5.71927e-10 -1.76468e-07 5.88681e-13 2.9736e-35
2789 1 0.000635 -0.00757197 -0.005715 -0.006156 1.44602e-16 4.76832e-17 2.16e-11 0 3.74932e-35
2874 1 0.000635 -0.00647211 -0.00635 -0.006156 -1.44609e-16 7.15816e-17 2.16e-11 0 4.0079e-35
2960 1 0.000635 -0.00537226 -0.005715 -0.006156 1.44604e-16 4.76841e-17 2.16e-11 5.26426e-25 3.74932e-35
3046 1 0.000635 -0.00427241 -0.00635 -0.006156 -1.13621e-16 7.75431e-17 2.16e-11 0 2.90896e-35
3133 1 0.000635 -0.00317256 -0.005715 -0.006156 2.0671e-17 4.76858e-17 2.16e-11 5.26426e-25 6.46435e-36
3219 1 0.000635 -0.0020727 -0.00635 -0.006156 -5.0822e-21 7.15842e-17 2.16e-11 0 1.0343e-35
3306 1 0.000635 -0.000972852 -0.005715 -0.006156 0 4.76866e-17 2.16e-11 0 5.17148e-36
3392 1 0.000635 0.000127 -0.00635 -0.006156 0 7.1585e-17 2.16e-11 0 1.0343e-35
3479 1 0.000635 0.00122685 -0.005715 -0.006156 0 4.76866e-17 2.16e-11 0 5.17148e-36
3565 1 0.000635 0.0023267 -0.00635 -0.006156 0 7.15842e-17 2.16e-11 0 1.0343e-35
3652 1 0.000635 0.00342656 -0.005715 -0.006156 4.13098e-17 4.76858e-17 2.16e-11 0 1.0343e-35
3738 1 0.000635 0.00452641 -0.00635 -0.006156 4.13183e-17 7.15816e-17 2.16e-11 0 2.06859e-35
3825 1 0.000635 0.00562626 -0.005715 -0.006156 -1.44597e-16 4.76841e-17 2.16e-11 0 3.74932e-35
3910 1 0.000635 0.00672611 -0.00635 -0.006156 6.19774e-17 7.15825e-17 2.16e-11 0 2.9736e-35
3996 1 0.000635 0.00782597 -0.005715 -0.006156 -6.77626e-21 4.76849e-17 2.16e-11 0 5.17148e-36
4081 1 0.000635 0.00892582 -0.00635 -0.006156 -5.78384e-09 -1.00179e-08 -7.63426e-07 1.10299e-11 1.0343e-35
4167 1 0.000635 0.0100257 -0.005715 -0.006156 -1.67282e-08 -2.89742e-08 -2.01125e-06 7.70929e-11 6.85221e-35
4252 1 0.000635 0.0111255 -0.00635 -0.006156 -7.77461e-05 1.52552e-05 -1.11027e-05 3.95279e-10 2.0394e-11
4337 1 0.000635 0.0122243 -0.00571522 -0.00612361 -4.9699e-11 -2.11485e-11 3.16933e-10 4.70379e-10 3.06051e-11
2364 1 0.000635 -0.0130614 -0.0050787 -0.0059906 -3.97299e-10 4.58156e-11 -2.56913e-09 7.50096e-11 6.80789e-11
2533 1 0.000635 -0.0108715 -0.00508 -0.006156 -5.28507e-06 -3.08785e-06 -1.80224e-06 6.29791e-11 1.66415e-13
2704 1 0.000635 -0.00867182 -0.00508 -0.006156 -6.19774e-17 -2.3845e-17 2.16e-11 0 1.42216e-35
2875 1 0.000635 -0.00647211 -0.00508 -0.006156 -1.44605e-16 -2.38442e-17 2.16e-11 0 3.49075e-35
3047 1 0.000635 -0.00427241 -0.00508 -0.006156 -1.03287e-16 -2.38433e-17 2.16e-11 1.57928e-24 2.45645e-35
3220 1 0.000635 -0.0020727 -0.00508 -0.006156 -3.38813e-21 -2.38442e-17 2.16e-11 0 2.58574e-36
3393 1 0.000635 0.000127 -0.00508 -0.006156 0 -2.38442e-17 2.16e-11 0 2.58574e-36
3566 1 0.000635 0.0023267 -0.00508 -0.006156 -3.38813e-21 -2.38459e-17 2.16e-11 0 2.58574e-36
3739 1 0.000635 0.00452641 -0.00508 -0.006156 4.13081e-17 -2.38433e-17 2.16e-11 5.26426e-25 2.84431e-35
3911 1 0.000635 0.00672611 -0.00508 -0.006156 6.19859e-17 -2.38442e-17 2.16e-11 0 1.42216e-35
4082 1 0.000635 0.00892582 -0.00508 -0.006156 -8.47033e-21 -2.3845e-17 2.16e-11 0 2.58574e-36
4253 1 0.000635 0.0111255 -0.00508 -0.006156 -1.82309e-05 1.04165e-05 -4.84044e-06 2.36749e-10 2.02731e-12
4422 1 0.000635 0.0133192 -0.00507852 -0.00603493 5.88716e-11 -9.1117e-11 -1.72165e-10 5.68383e-10 1.61152e-11
2280 1 0.000635 -0.0141361 -0.00444371 -0.00575649 -1.89528e-10 5.83104e-11 -1.31341e-09 2.09228e-11 1.96656e-11
2365 1 0.000635 -0.0130566 -0.00380952 -0.00597393 -5.95444e-10 3.83504e-11 -3.44733e-09 1.06363e-10 2.33629e-11
2449 1 0.000635 -0.0119714 -0.004445 -0.006156 -0.000113136 -5.54056e-05 2.45532e-05 9.74015e-11 5.01107e-11
2534 1 0.000635 -0.0108715 -0.00381 -0.006156 -5.01449e-08 -2.93028e-08 -3.05868e-06 8.91272e-11 4.65433e-35
2619 1 0.000635 -0.00977167 -0.004445 -0.006156 -1.27795e-09 2.21347e-09 -3.00793e-07 1.71047e-12 6.01185e-35
2705 1 0.000635 -0.00867182 -0.00381 -0.006156 -8.2623e-17 0 2.16e-11 1.05285e-24 2.06859e-35
2790 1 0.000635 -0.00757197 -0.004445 -0.006156 1.44602e-16 -5.96282e-17 2.16e-11 5.26426e-25 3.74932e-35
2876 1 0.000635 -0.00647211 -0.00381 -0.006156 -1.44605e-16 0 2.16e-11 0 3.23218e-35
2961 1 0.000635 -0.00537226 -0.004445 -0.006156 1.44604e-16 -5.9629e-17 2.16e-11 5.26426e-25 3.74932e-35
3048 1 0.000635 -0.00427241 -0.00381 -0.006156 -1.03291e-16 0 2.16e-11 0 1.68073e-35
3134 1 0.000635 -0.00317256 -0.004445 -0.006156 3.09963e-17 -5.36693e-17 2.16e-11 1.57928e-24 8.40366e-36
3221 1 0.000635 -0.0020727 -0.00381 -0.006156 -6.77626e-21 0 2.16e-11 2.10571e-24 0
3307 1 0.000635 -0.000972852 -0.004445 -0.006156 0 -4.77053e-17 2.16e-11 1.05285e-24 5.17148e-36
3394 1 0.000635 0.000127 -0.00381 -0.006156 0 0 2.16e-11 1.05285e-24 0
3480 1 0.000635 0.00122685 -0.004445 -0.006156 0 -4.77053e-17 2.16e-11 1.05285e-24 5.17148e-36
3567 1 0.000635 0.0023267 -0.00381 -0.006156 0 0 2.16e-11 2.10571e-24 0
3653 1 0.000635 0.00342656 -0.004445 -0.006156 3.09811e-17 -5.36701e-17 2.16e-11 1.05285e-24 8.40366e-36
3740 1 0.000635 0.00452641 -0.00381 -0.006156 4.13217e-17 7.70372e-34 2.16e-11 0 1.29287e-35
3826 1 0.000635 0.00562626 -0.004445 -0.006156 -1.44597e-16 -5.9629e-17 2.16e-11 5.26426e-25 3.74932e-35
3912 1 0.000635 0.00672611 -0.00381 -0.006156 8.26298e-17 0 2.16e-11 1.05285e-24 2.06859e-35
3997 1 0.000635 0.00782597 -0.004445 -0.006156 -3.38813e-21 -4.77061e-17 2.16e-11 1.05285e-24 5.17148e-36
4083 1 0.000635 0.00892582 -0.00381 -0.006156 -6.77626e-21 0 2.16e-11 1.05285e-24 0
4168 1 0.000635 0.0100257 -0.004445 -0.006156 3.13425e-09 5.42869e-09 -2.85716e-07 1.54391e-12 6.01185e-35
4254 1 0.000635 0.0111255 -0.00381 -0.006156 1.99987e-08 -8.20692e-09 -2.02422e-06 3.89316e-11 4.65433e-35
4338 1 0.000635 0.0122254 -0.004445 -0.006156 5.00798e-05 3.03457e-06 2.72571e-06 4.59453e-10 2.62049e-11
4423 1 0.000635 0.0133224 -0.0038091 -0.00606529 1.01752e-10 -7.21845e-11 6.39579e-11 2.96028e-10 5.01252e-11
4507 1 0.000635 0.0144103 -0.00444273 -0.00589716 3.25849e-10 -5.20094e-11 -3.44738e-10 4.86169e-10 1.87024e-11
2281 1 0.000635 -0.0141308 -0.00317437 -0.00573665 8.0232e-10 -9.58273e-12 3.09756e-09 1.14983e-11 9.43982e-12
2366 1 0.000635 -0.0130564 -0.00253977 -0.00597431 -6.37557e-10 3.64093e-11 -3.39354e-09 1.09134e-10 4.96566e-12
2450 1 0.000635 -0.0119714 -0.003175 -0.006156 -2.83688e-05 3.26122e-06 1.00611e-05 1.06822e-10 2.6706e-12
2535 1 0.000635 -0.0108715 -0.00254 -0.006156 -6.27355e-08 -3.52011e-09 -3.19012e-06 9.6808e-11 6.33506e-35
2620 1 0.000635 -0.00977167 -0.003175 -0.006156 -1.3427e-16 4.1748e-17 2.16e-11 5.26426e-25 5.81792e-35
2706 1 0.000635 -0.00867182 -0.00254 -0.006156 -7.2301e-17 -5.97417e-18 2.16e-11 0 1.61609e-35
2791 1 0.000635 -0.00757197 -0.003175 -0.006156 1.44602e-16 4.77053e-17 2.16e-11 5.26426e-25 3.55539e-35
2877 1 0.000635 -0.00647211 -0.00254 -0.006156 -1.44605e-16 -1.19365e-17 2.16e-11 0 3.23218e-35
2962 1 0.000635 -0.00537226 -0.003175 -0.006156 1.44604e-16 4.7707e-17 2.16e-11 0 3.55539e-35
3049 1 0.000635 -0.00427241 -0.00254 -0.006156 -1.03284e-16 -1.19373e-17 2.16e-11 5.26426e-25 1.93931e-35
3135 1 0.000635 -0.00317256 -0.003175 -0.006156 3.09963e-17 4.17472e-17 2.16e-11 1.05285e-24 6.46435e-36
3222 1 0.000635 -0.0020727 -0.00254 -0.006156 0 -1.43996e-20 2.16e-11 0 0
3308 1 0.000635 -0.000972852 -0.003175 -0.006156 0 3.57823e-17 2.16e-11 1.05285e-24 3.23218e-36
3395 1 0.000635 0.000127 -0.00254 -0.006156 0 -1.35525e-20 2.16e-11 0 0
3481 1 0.000635 0.00122685 -0.003175 -0.006156 0 3.57823e-17 2.16e-11 1.05285e-24 3.23218e-36
3568 1 0.000635 0.0023267 -0.00254 -0.006156 -6.77626e-21 -1.35525e-20 2.16e-11 0 0
3654 1 0.000635 0.00342656 -0.003175 -0.006156 3.09777e-17 4.17463e-17 2.16e-11 1.05285e-24 6.46435e-36
3741 1 0.000635 0.00452641 -0.00254 -0.006156 4.13115e-17 -1.19382e-17 2.16e-11 5.26426e-25 1.93931e-35
3827 1 0.000635 0.00562626 -0.003175 -0.006156 -1.44595e-16 4.77053e-17 2.16e-11 5.26426e-25 3.55539e-35
3913 1 0.000635 0.00672611 -0.00254 -0.006156 7.23095e-17 -5.97502e-18 2.16e-11 0 1.61609e-35
3998 1 0.000635 0.00782597 -0.003175 -0.006156 0 3.57823e-17 2.16e-11 1.05285e-24 3.23218e-36
4084 1 0.000635 0.00892582 -0.00254 -0.006156 -8.47033e-21 -1.27055e-20 2.16e-11 0 0
4169 1 0.000635 0.0100257 -0.003175 -0.006156 1.3427e-16 4.1748e-17 2.16e-11 5.26426e-25 5.81792e-35
4255 1 0.000635 0.0111255 -0.00254 -0.006156 1.69699e-08 -1.95029e-08 -1.83642e-06 3.24708e-11 6.33506e-35
4339 1 0.000635 0.0122254 -0.003175 -0.006156 4.45736e-05 8.6492e-06 6.18602e-06 4.51836e-11 6.75365e-12
4424 1 0.000635 0.0133203 -0.00253958 -0.00604751 8.36042e-11 -5.06017e-11 -1.96732e-10 5.51288e-11 1.33961e-11
4508 1 0.000635 0.0144127 -0.00317359 -0.0059114 3.36772e-10 -3.72271e-11 -1.34359e-09 3.91321e-10 5.90592e-11
2282 1 0.000635 -0.0141298 -0.00190468 -0.00573334 -3.39668e-10 -2.26115e-11 -1.42122e-09 1.31477e-11 4.95848e-12
2367 1 0.000635 -0.0130567 -0.0012699 -0.00597628 4.0115e-10 2.56229e-11 2.23337e-09 1.08792e-10 3.11153e-12
2451 1 0.000635 -0.0119714 -0.001905 -0.006156 -1.86604e-05 3.60304e-06 8.44871e-06 1.07402e-10 1.24208e-12
2536 1 0.000635 -0.0108715 -0.00127 -0.006156 -6.35775e-08 1.50315e-11 -3.18102e-06 9.62595e-11 6.33506e-35
2621 1 0.000635 -0.00977167 -0.001905 -0.006156 -1.44592e-16 -1.19229e-17 2.16e-11 5.26426e-25 6.39971e-35
2707 1 0.000635 -0.00867182 -0.00127 -0.006156 -7.2301e-17 5.96909e-18 2.16e-11 5.26426e-25 1.61609e-35
2792 1 0.000635 -0.00757197 -0.001905 -0.006156 1.44605e-16 -1.19229e-17 2.16e-11 0 3.29682e-35
2878 1 0.000635 -0.00647211 -0.00127 -0.006156 -1.44605e-16 1.19331e-17 2.16e-11 0 3.23218e-35
2963 1 0.000635 -0.00537226 -0.001905 -0.006156 1.44602e-16 -1.19246e-17 2.16e-11 0 3.29682e-35
3050 1 0.000635 -0.00427241 -0.00127 -0.006156 -1.13613e-16 5.96993e-18 2.16e-11 0 2.13324e-35
3136 1 0.000635 -0.00317256 -0.001905 -0.006156 4.13081e-17 -1.19229e-17 2.16e-11 0 5.81792e-36
3223 1 0.000635 -0.0020727 -0.00127 -0.006156 0 7.6233e-21 2.16e-11 0 0
3309 1 0.000635 -0.000972852 -0.001905 -0.006156 0 -1.19229e-17 2.16e-11 0 6.46435e-37
3396 1 0.000635 0.000127 -0.00127 -0.006156 0 6.77626e-21 2.16e-11 0 0
3482 1 0.000635 0.00122685 -0.001905 -0.006156 0 -1.19229e-17 2.16e-11 0 6.46435e-37
3569 1 0.000635 0.0023267 -0.00127 -0.006156 -6.77626e-21 6.77626e-21 2.16e-11 0 0
3655 1 0.000635 0.00342656 -0.001905 -0.006156 2.06608e-17 -1.19229e-17 2.16e-11 0 1.93931e-36
3742 1 0.000635 0.00452641 -0.00127 -0.006156 4.13149e-17 1.19331e-17 2.16e-11 5.26426e-25 1.93931e-35
3828 1 0.000635 0.00562626 -0.001905 -0.006156 -1.44599e-16 -1.19229e-17 2.16e-11 0 3.29682e-35
3914 1 0.000635 0.00672611 -0.00127 -0.006156 7.23078e-17 5.96909e-18 2.16e-11 5.26426e-25 1.61609e-35
3999 1 0.000635 0.00782597 -0.001905 -0.006156 -6.77626e-21 -1.19229e-17 2.16e-11 5.26426e-25 6.46435e-37
4085 1 0.000635 0.00892582 -0.00127 -0.006156 -6.77626e-21 6.77626e-21 2.16e-11 0 0
4170 1 0.000635 0.0100257 -0.001905 -0.006156 1.44599e-16 -1.19229e-17 2.16e-11 0 6.39971e-35
4256 1 0.000635 0.0111255 -0.00127 -0.006156 2.32453e-08 -8.56748e-09 -2.00911e-06 3.83275e-11 6.33506e-35
4340 1 0.000635 0.0122254 -0.001905 -0.006156 2.05019e-05 7.11361e-07 5.36395e-06 4.37288e-11 1.3071e-12
4425 1 0.000635 0.0133191 -0.00126984 -0.00603844 3.90095e-10 -8.17718e-12 -2.75891e-09 4.99589e-11 2.49653e-12
4509 1 0.000635 0.0144078 -0.00190445 -0.00587952 3.18943e-10 -6.54385e-12 -1.70916e-09 2.0272e-11 1.06491e-11
2283 1 0.000635 -0.0141298 -0.0006349 -0.00573377 9.71222e-11 -1.43994e-11 9.25667e-10 1.37768e-11 4.04051e-12
2452 1 0.000635 -0.0119714 -0.000635 -0.006156 -1.79771e-05 1.21477e-06 8.19177e-06 1.07569e-10 1.05561e-12
2622 1 0.000635 -0.00977167 -0.000635 -0.006156 -1.44599e-16 -8.47033e-21 2.16e-11 0 6.33506e-35
2793 1 0.000635 -0.00757197 -0.000635 -0.006156 1.44604e-16 -1.19339e-17 2.16e-11 5.26426e-25 3.23218e-35
2964 1 0.000635 -0.00537226 -0.000635 -0.006156 1.44604e-16 -1.19365e-17 2.16e-11 0 3.23218e-35
3137 1 0.000635 -0.00317256 -0.000635 -0.006156 4.13183e-17 -8.47033e-21 2.16e-11 0 5.17148e-36
3310 1 0.000635 -0.000972852 -0.000635 -0.006156 0 -8.47033e-21 2.16e-11 0 0
3483 1 0.000635 0.00122685 -0.000635 -0.006156 0 -8.47033e-21 2.16e-11 0 0
3656 1 0.000635 0.00342656 -0.000635 -0.006156 3.09811e-17 -5.97078e-18 2.16e-11 5.26426e-25 3.23218e-36
3829 1 0.000635 0.00562626 -0.000635 -0.006156 -1.44597e-16 -1.19339e-17 2.16e-11 5.26426e-25 3.23218e-35
4000 1 0.000635 0.00782597 -0.000635 -0.006156 0 -8.47033e-21 2.16e-11 0 0
4171 1 0.000635 0.0100257 -0.000635 -0.006156 1.44599e-16 -8.47033e-21 2.16e-11 0 6.33506e-35
4341 1 0.000635 0.0122254 -0.000635 -0.006156 7.30597e-06 4.42889e-07 4.13568e-06 4.82202e-11 1.71269e-13
4426 1 0.000635 0.0133188 5.4107e-16 -0.00603666 2.72319e-10 3.68617e-14 -1.87727e-09 5.16595e-11 1.10853e-12
4510 1 0.000635 0.0144052 -0.000634862 -0.00586365 8.15379e-10 8.29641e-12 -4.85455e-09 1.25907e-11 3.24321e-12
2284 1 0.000635 -0.0141298 0.0006349 -0.00573377 9.72703e-11 1.42618e-11 9.25617e-10 1.37768e-11 4.04051e-12
2368 1 0.000635 -0.0130568 -6.29367e-16 -0.00597695 9.12715e-10 8.76887e-14 4.95787e-09 1.0869e-10 2.8497e-12
2453 1 0.000635 -0.0119714 0.000635 -0.006156 -1.79771e-05 -1.21477e-06 8.19177e-06 1.07569e-10 1.05561e-12
2537 1 0.000635 -0.0108715 0 -0.006156 -6.33206e-08 2.73592e-19 -3.16969e-06 9.55661e-11 6.33506e-35
2623 1 0.000635 -0.00977167 0.000635 -0.006156 -1.44599e-16 -3.38813e-21 2.16e-11 0 6.33506e-35
2708 1 0.000635 -0.00867182 0 -0.006156 -8.26247e-17 5.92923e-21 2.16e-11 0 2.06859e-35
2794 1 0.000635 -0.00757197 0.000635 -0.006156 1.44602e-16 -3.38813e-21 2.16e-11 0 3.23218e-35
2879 1 0.000635 -0.00647211 0 -0.006156 -1.44605e-16 5.0822e-21 2.16e-11 0 3.23218e-35
2965 1 0.000635 -0.00537226 0.000635 -0.006156 1.44602e-16 -3.38813e-21 2.16e-11 0 3.23218e-35
3051 1 0.000635 -0.00427241 0 -0.006156 -1.03282e-16 5.92923e-21 2.16e-11 0 1.68073e-35
3138 1 0.000635 -0.00317256 0.000635 -0.006156 4.13149e-17 -3.38813e-21 2.16e-11 0 5.17148e-36
3224 1 0.000635 -0.0020727 0 -0.006156 0 6.77626e-21 2.16e-11 0 0
3311 1 0.000635 -0.000972852 0.000635 -0.006156 0 -3.38813e-21 2.16e-11 0 0
3397 1 0.000635 0.000127 0 -0.006156 0 6.77626e-21 2.16e-11 0 0
3484 1 0.000635 0.00122685 0.000635 -0.006156 0 -3.38813e-21 2.16e-11 0 0
3570 1 0.000635 0.0023267 0 -0.006156 -3.38813e-21 5.0822e-21 2.16e-11 5.26426e-25 0
3657 1 0.000635 0.00342656 0.000635 -0.006156 2.06574e-17 -3.38813e-21 2.16e-11 0 1.29287e-36
3743 1 0.000635 0.00452641 0 -0.006156 4.13132e-17 5.92923e-21 2.16e-11 0 1.29287e-35
3830 1 0.000635 0.00562626 0.000635 -0.006156 -1.44595e-16 -3.38813e-21 2.16e-11 0 3.23218e-35
3915 1 0.000635 0.00672611 0 -0.006156 8.26315e-17 5.92923e-21 2.16e-11 0 2.06859e-35
4001 1 0.000635 0.00782597 0.000635 -0.006156 0 -3.38813e-21 2.16e-11 0 0
4086 1 0.000635 0.00892582 0 -0.006156 -6.77626e-21 6.77626e-21 2.16e-11 0 0
4172 1 0.000635 0.0100257 0.000635 -0.006156 1.44599e-16 -3.38813e-21 2.16e-11 0 6.33506e-35
4257 1 0.000635 0.0111255 0 -0.006156 2.57889e-08 -2.97173e-17 -2.07342e-06 4.07346e-11 6.33506e-35
4342 1 0.000635 0.0122254 0.000635 -0.006156 7.30597e-06 -4.42889e-07 4.13568e-06 4.82202e-11 1.71269e-13
4511 1 0.000635 0.0144052 0.000634862 -0.00586365 8.15323e-10 -8.27543e-12 -4.85455e-09 1.25907e-11 3.24321e-12
2285 1 0.000635 -0.0141298 0.00190468 -0.00573334 -3.39676e-10 2.28972e-11 -1.4212e-09 1.31477e-11 4.95848e-12
2369 1 0.000635 -0.0130567 0.0012699 -0.00597628 4.01196e-10 -2.57566e-11 2.23336e-09 1.08792e-10 3.11153e-12
2454 1 0.000635 -0.0119714 0.001905 -0.006156 -1.86604e-05 -3.60304e-06 8.44871e-06 1.07402e-10 1.24208e-12
2538 1 0.000635 -0.0108715 0.00127 -0.006156 -6.35775e-08 -1.50315e-11 -3.18102e-06 9.62595e-11 6.33506e-35
2624 1 0.000635 -0.00977167 0.001905 -0.006156 -1.44595e-16 1.19221e-17 2.16e-11 0 6.39971e-35
2709 1 0.000635 -0.00867182 0.00127 -0.006156 -8.26264e-17 0 2.16e-11 0 2.06859e-35
2795 1 0.000635 -0.00757197 0.001905 -0.006156 1.44604e-16 1.19221e-17 2.16e-11 0 3.29682e-35
2880 1 0.000635 -0.00647211 0.00127 -0.006156 -1.44605e-16 0 2.16e-11 0 3.23218e-35
2966 1 0.000635 -0.00537226 0.001905 -0.006156 1.44604e-16 1.19238e-17 2.16e-11 0 3.29682e-35
3052 1 0.000635 -0.00427241 0.00127 -0.006156 -1.0328e-16 0 2.16e-11 0 1.68073e-35
3139 1 0.000635 -0.00317256 0.001905 -0.006156 4.13115e-17 1.19229e-17 2.16e-11 0 5.81792e-36
3225 1 0.000635 -0.0020727 0.00127 -0.006156 0 0 2.16e-11 0 0
3312 1 0.000635 -0.000972852 0.001905 -0.006156 0 1.19212e-17 2.16e-11 0 6.46435e-37
3398 1 0.000635 0.000127 0.00127 -0.006156 0 0 2.16e-11 0 0
3485 1 0.000635 0.00122685 0.001905 -0.006156 0 1.19212e-17 2.16e-11 0 6.46435e-37
3571 1 0.000635 0.0023267 0.00127 -0.006156 -6.77626e-21 0 2.16e-11 0 0
3658 1 0.000635 0.00342656 0.001905 -0.006156 2.06591e-17 1.19221e-17 2.16e-11 0 1.93931e-36
3744 1 0.000635 0.00452641 0.00127 -0.006156 4.13115e-17 0 2.16e-11 0 1.29287e-35
3831 1 0.000635 0.00562626 0.001905 -0.006156 -1.44597e-16 1.19221e-17 2.16e-11 0 3.29682e-35
3916 1 0.000635 0.00672611 0.00127 -0.006156 8.26331e-17 0 2.16e-11 0 2.06859e-35
4002 1 0.000635 0.00782597 0.001905 -0.006156 -3.38813e-21 1.19221e-17 2.16e-11 0 6.46435e-37
4087 1 0.000635 0.00892582 0.00127 -0.006156 -6.77626e-21 0 2.16e-11 0 0
4173 1 0.000635 0.0100257 0.001905 -0.006156 1.44599e-16 1.19212e-17 2.16e-11 0 6.39971e-35
4258 1 0.000635 0.0111255 0.00127 -0.006156 2.32453e-08 8.56748e-09 -2.00911e-06 3.83275e-11 6.33506e-35
4343 1 0.000635 0.0122254 0.001905 -0.006156 2.05019e-05 -7.11361e-07 5.36395e-06 4.37288e-11 1.3071e-12
4427 1 0.000635 0.0133191 0.00126984 -0.00603844 3.90029e-10 8.1425e-12 -2.75893e-09 4.99589e-11 2.49653e-12
4512 1 0.000635 0.0144078 0.00190445 -0.00587952 3.18947e-10 6.46378e-12 -1.70917e-09 2.0272e-11 1.06491e-11