ITEM: TIMESTEP
1650000
ITEM: NUMBER OF ATOMS
6793
ITEM: BOX BOUNDS ff ff ff
-8.9999999999999997e-02 8.9999999999999997e-02
-8.9999999999999997e-02 8.9999999999999997e-02
-4.0000000000000001e-02 4.0000000000000001e-02
ITEM: ATOMS id type radius x y z fx fy fz c_bendingE c_stretchingE
3385 1 0.000635 0.000116932 -0.0151856 -0.0173379 -1.1894e-09 -2.15613e-10 -7.42111e-09 3.1618e-09 7.14771e-11
3213 1 0.000635 -0.00207178 -0.0139545 -0.0176313 6.79369e-10 -2.48506e-11 -4.76301e-09 5.20648e-09 3.61584e-10
3299 1 0.000635 -0.000974559 -0.014588 -0.0175852 -3.92889e-10 1.43539e-09 -5.77595e-09 4.81354e-09 1.04598e-10
3386 1 0.000635 0.000125701 -0.013964 -0.0176895 9.99681e-10 -2.62763e-09 -1.67502e-08 3.52938e-09 4.20074e-11
3472 1 0.000635 0.00120748 -0.0145376 -0.0173531 3.33599e-10 -1.96209e-09 -8.68673e-09 1.65696e-09 1.70506e-10
3559 1 0.000635 0.00228706 -0.0138712 -0.0173253 -1.99393e-09 4.96188e-09 1.00996e-08 6.71832e-10 2.20237e-10
3041 1 0.000635 -0.00426633 -0.0126856 -0.0176375 -8.7425e-10 1.40767e-10 -1.83141e-09 3.30142e-09 1.33517e-10
3127 1 0.000635 -0.00316838 -0.0133196 -0.0176372 -2.5975e-09 -1.8079e-09 -1.37881e-08 3.93614e-09 3.44056e-10
3214 1 0.000635 -0.0020727 -0.0127 -0.01782 -9.60931e-05 2.08763e-05 -6.78483e-06 4.48281e-09 7.84348e-11
3300 1 0.000635 -0.000973386 -0.0133354 -0.0177952 6.4876e-10 1.1282e-09 2.32495e-09 3.48073e-09 4.99308e-11
3387 1 0.000635 0.000127 -0.0127 -0.01782 -5.7494e-05 -5.49247e-05 1.22161e-06 3.65075e-10 1.89517e-11
3473 1 0.000635 0.00122571 -0.0133339 -0.0177639 -9.53718e-10 3.00936e-09 1.1942e-08 4.60819e-10 1.57755e-10
3560 1 0.000635 0.0023267 -0.0127 -0.01782 7.27068e-05 -0.000228907 0.000114011 5.87083e-10 2.5067e-10
3646 1 0.000635 0.00340088 -0.0132807 -0.0174588 2.11248e-09 -6.06863e-09 -1.66444e-08 5.69269e-10 2.94852e-10
3733 1 0.000635 0.0045098 -0.0126674 -0.0175374 3.98402e-10 6.10261e-10 4.45496e-11 3.81089e-10 4.55614e-11
2870 1 0.000635 -0.00646358 -0.0114171 -0.0176381 3.14232e-09 2.67681e-09 2.13502e-08 2.56938e-09 5.82745e-11
2955 1 0.000635 -0.00536478 -0.0120514 -0.0176377 5.77161e-10 1.35935e-09 8.53006e-09 2.86831e-09 6.25835e-11
3042 1 0.000635 -0.00427241 -0.01143 -0.01782 1.18169e-06 6.24669e-05 -1.75374e-05 2.57427e-09 1.85664e-11
3128 1 0.000635 -0.00317256 -0.012065 -0.01782 -3.94056e-05 9.33662e-05 -2.01968e-05 3.23767e-09 7.16071e-11
3215 1 0.000635 -0.0020727 -0.01143 -0.01782 3.32497e-08 -7.17837e-08 -3.27446e-06 1.02024e-10 5.17148e-36
3301 1 0.000635 -0.000972852 -0.012065 -0.01782 2.89321e-08 -3.64533e-05 -2.59358e-06 1.05815e-10 6.00479e-12
3388 1 0.000635 0.000127 -0.01143 -0.01782 1.14536e-08 -1.69407e-21 -1.14987e-06 2.5056e-11 5.17148e-36
3474 1 0.000635 0.00122685 -0.012065 -0.01782 -2.73076e-08 -8.62146e-06 -5.18396e-06 3.93332e-10 3.09618e-13
3561 1 0.000635 0.0023267 -0.01143 -0.01782 2.6124e-07 -1.52143e-07 -6.84557e-06 4.94963e-10 5.17148e-36
3647 1 0.000635 0.00342656 -0.012065 -0.01782 6.09303e-05 4.70345e-05 -6.92508e-07 4.47958e-10 5.3662e-11
3734 1 0.000635 0.00452641 -0.01143 -0.01782 2.47308e-05 2.11982e-05 3.18052e-06 3.11389e-10 9.47182e-12
3820 1 0.000635 0.0056145 -0.0120429 -0.0175863 -3.16879e-09 9.31063e-09 3.38694e-08 2.91588e-10 8.41843e-12
3906 1 0.000635 0.00671751 -0.0114144 -0.0176223 -2.61841e-09 7.0355e-09 3.02796e-08 2.41976e-10 1.83929e-12
3991 1 0.000635 0.00779747 -0.0120111 -0.0173211 1.30477e-09 -2.95774e-10 -4.57319e-09 2.46063e-09 8.90655e-11
2785 1 0.000635 -0.00756248 -0.0107825 -0.0176372 6.58696e-09 2.47634e-09 2.19182e-08 2.3599e-09 8.58743e-11
2956 1 0.000635 -0.00537226 -0.010795 -0.01782 3.16603e-05 3.74785e-05 -1.53263e-05 2.13079e-09 8.97075e-12
3129 1 0.000635 -0.00317256 -0.010795 -0.01782 -1.60549e-09 -6.1122e-08 -3.22269e-06 9.87691e-11 6.46435e-36
3302 1 0.000635 -0.000972852 -0.010795 -0.01782 4.70118e-09 0 -2.1855e-07 9.03308e-13 5.17148e-36
3475 1 0.000635 0.00122685 -0.010795 -0.01782 1.00518e-08 -1.69407e-21 -4.94804e-07 4.63131e-12 5.17148e-36
3648 1 0.000635 0.00342656 -0.010795 -0.01782 1.68386e-07 -1.01114e-07 -5.2494e-06 2.7845e-10 1.0343e-35
3821 1 0.000635 0.00562626 -0.010795 -0.01782 1.19481e-05 1.16077e-05 3.48379e-06 2.2674e-10 2.42615e-12
3992 1 0.000635 0.00782012 -0.0107846 -0.0176553 1.64487e-09 -3.40923e-09 -2.17365e-08 1.2206e-09 5.89314e-11
4077 1 0.000635 0.00890142 -0.0113839 -0.0173672 -2.9098e-09 4.39913e-09 9.00707e-09 2.34894e-09 1.17411e-11
2615 1 0.000635 -0.00975854 -0.00951076 -0.0176178 -2.67191e-09 -7.60483e-09 -3.27689e-08 2.31452e-09 2.48801e-10
2700 1 0.000635 -0.00866106 -0.0101472 -0.0176321 3.25446e-09 -3.22979e-09 -8.36675e-09 2.25091e-09 1.34657e-10
2786 1 0.000635 -0.00757197 -0.009525 -0.01782 7.8336e-05 3.19598e-06 -1.23059e-05 1.45187e-09 4.65148e-11
2871 1 0.000635 -0.00647211 -0.01016 -0.01782 5.60607e-05 1.81612e-05 -1.35282e-05 1.77745e-09 2.11653e-11
2957 1 0.000635 -0.00537226 -0.009525 -0.01782 -3.91304e-08 -4.65388e-08 -3.22176e-06 9.87286e-11 3.74932e-35
3043 1 0.000635 -0.00427241 -0.01016 -0.01782 -2.31873e-08 -5.27093e-08 -3.21615e-06 9.83713e-11 2.71503e-35
3130 1 0.000635 -0.00317256 -0.009525 -0.01782 2.0671e-17 0 2.16e-11 1.05285e-24 6.46435e-36
3216 1 0.000635 -0.0020727 -0.01016 -0.01782 -6.77626e-21 0 2.16e-11 0 5.17148e-36
3303 1 0.000635 -0.000972852 -0.009525 -0.01782 0 0 2.16e-11 0 5.17148e-36
3389 1 0.000635 0.000127 -0.01016 -0.01782 0 0 2.16e-11 0 5.17148e-36
3476 1 0.000635 0.00122685 -0.009525 -0.01782 0 0 2.16e-11 0 5.17148e-36
3562 1 0.000635 0.0023267 -0.01016 -0.01782 0 0 2.16e-11 0 5.17148e-36
3649 1 0.000635 0.00342656 -0.009525 -0.01782 4.13115e-17 0 2.16e-11 0 1.0343e-35
3735 1 0.000635 0.00452641 -0.01016 -0.01782 1.05936e-07 -7.04187e-08 -4.23643e-06 1.77296e-10 3.10289e-35
3822 1 0.000635 0.00562626 -0.009525 -0.01782 7.69516e-08 -4.6439e-08 -3.51325e-06 1.21264e-10 3.74932e-35
3907 1 0.000635 0.00672611 -0.01016 -0.01782 2.19723e-05 -6.6941e-06 5.93613e-06 1.78913e-10 3.11382e-12
3993 1 0.000635 0.00782597 -0.009525 -0.01782 1.85829e-05 -2.88321e-05 4.87413e-06 4.6223e-10 3.56978e-12
4078 1 0.000635 0.00892144 -0.0101497 -0.0176665 4.4254e-10 4.23355e-10 -5.00414e-09 2.36164e-09 1.219e-10
4164 1 0.000635 0.0100004 -0.00949157 -0.0175194 6.13174e-09 -3.86024e-09 -1.8314e-08 2.13044e-09 2.67736e-10
2446 1 0.000635 -0.0119565 -0.00824566 -0.0175612 6.04735e-09 2.97351e-09 2.64306e-08 3.65912e-09 3.42042e-11
2530 1 0.000635 -0.0108562 -0.00887675 -0.0175948 -9.5199e-11 -2.18124e-09 -6.62459e-09 2.69698e-09 1.07295e-10
2616 1 0.000635 -0.00977167 -0.008255 -0.01782 -3.20232e-05 -0.000101351 2.07604e-05 7.99088e-10 5.85586e-11
2701 1 0.000635 -0.00867182 -0.00889 -0.01782 0.000105694 -8.80301e-06 -1.27133e-05 1.12366e-09 9.15695e-11
2787 1 0.000635 -0.00757197 -0.008255 -0.01782 -5.81336e-08 -4.41196e-08 -3.39708e-06 1.1016e-10 4.0079e-35
2872 1 0.000635 -0.00647211 -0.00889 -0.01782 -5.0211e-08 -4.33473e-08 -3.26329e-06 1.01348e-10 3.74932e-35
2958 1 0.000635 -0.00537226 -0.008255 -0.01782 1.44607e-16 -7.15799e-17 2.16e-11 5.26426e-25 4.0079e-35
3044 1 0.000635 -0.00427241 -0.00889 -0.01782 -1.03289e-16 -4.76841e-17 2.16e-11 1.05285e-24 2.71503e-35
3131 1 0.000635 -0.00317256 -0.008255 -0.01782 3.09912e-17 -7.75431e-17 2.16e-11 5.26426e-25 1.87466e-35
3217 1 0.000635 -0.0020727 -0.00889 -0.01782 -3.38813e-21 -4.76866e-17 2.16e-11 0 5.17148e-36
3304 1 0.000635 -0.000972852 -0.008255 -0.01782 0 -7.15833e-17 2.16e-11 0 1.0343e-35
3390 1 0.000635 0.000127 -0.00889 -0.01782 0 -4.76866e-17 2.16e-11 0 5.17148e-36
3477 1 0.000635 0.00122685 -0.008255 -0.01782 0 -7.15833e-17 2.16e-11 0 1.0343e-35
3563 1 0.000635 0.0023267 -0.00889 -0.01782 0 -4.76858e-17 2.16e-11 0 5.17148e-36
3650 1 0.000635 0.00342656 -0.008255 -0.01782 4.13098e-17 -7.15825e-17 2.16e-11 0 1.0343e-35
3736 1 0.000635 0.00452641 -0.00889 -0.01782 4.13115e-17 -4.76841e-17 2.16e-11 0 3.10289e-35
3823 1 0.000635 0.00562626 -0.008255 -0.01782 -1.446e-16 -7.15791e-17 2.16e-11 0 4.0079e-35
3908 1 0.000635 0.00672611 -0.00889 -0.01782 4.62039e-08 -5.13654e-08 -3.09685e-06 9.27126e-11 1.68073e-35
3994 1 0.000635 0.00782597 -0.008255 -0.01782 -2.04379e-08 -1.24748e-07 -4.1083e-06 1.75744e-10 1.0343e-35
4079 1 0.000635 0.00892582 -0.00889 -0.01782 -0.000107837 0.000113203 -3.82254e-05 1.1726e-09 8.79673e-11
4165 1 0.000635 0.0100257 -0.008255 -0.01782 0.000438293 7.7269e-05 0.000132202 1.67759e-09 1.18364e-09
2362 1 0.000635 -0.0130538 -0.00761071 -0.017488 8.50284e-09 -5.28579e-11 2.43389e-08 3.00549e-09 1.18729e-10
2447 1 0.000635 -0.0119677 -0.00698392 -0.0177024 1.90275e-09 -8.0231e-10 -6.95447e-09 4.56986e-10 1.16931e-10
2531 1 0.000635 -0.0108709 -0.00761966 -0.0177729 1.37612e-09 -4.78189e-10 1.56948e-10 5.47703e-10 2.12189e-11
2617 1 0.000635 -0.00977167 -0.006985 -0.01782 -6.76496e-06 -3.84635e-06 -2.54919e-06 1.07438e-10 2.65984e-13
2702 1 0.000635 -0.00867182 -0.00762 -0.01782 -7.80467e-08 -2.89224e-08 -3.64122e-06 1.27384e-10 2.9736e-35
2788 1 0.000635 -0.00757197 -0.006985 -0.01782 1.44605e-16 -2.38958e-17 2.16e-11 0 4.0079e-35
2873 1 0.000635 -0.00647211 -0.00762 -0.01782 -1.44609e-16 2.38967e-17 2.16e-11 0 4.0079e-35
2959 1 0.000635 -0.00537226 -0.006985 -0.01782 1.44605e-16 -2.38958e-17 2.16e-11 0 4.0079e-35
3045 1 0.000635 -0.00427241 -0.00762 -0.01782 -1.13623e-16 2.98573e-17 2.16e-11 0 2.90896e-35
3132 1 0.000635 -0.00317256 -0.006985 -0.01782 3.09912e-17 -2.98573e-17 2.16e-11 0 1.87466e-35
3218 1 0.000635 -0.0020727 -0.00762 -0.01782 -1.69407e-21 2.38958e-17 2.16e-11 0 1.0343e-35
3305 1 0.000635 -0.000972852 -0.006985 -0.01782 0 -2.38967e-17 2.16e-11 0 1.0343e-35
3391 1 0.000635 0.000127 -0.00762 -0.01782 0 2.38967e-17 2.16e-11 0 1.0343e-35
3478 1 0.000635 0.00122685 -0.006985 -0.01782 0 -2.38967e-17 2.16e-11 0 1.0343e-35
3564 1 0.000635 0.0023267 -0.00762 -0.01782 0 2.38967e-17 2.16e-11 0 1.0343e-35
3651 1 0.000635 0.00342656 -0.006985 -0.01782 4.13081e-17 -2.38967e-17 2.16e-11 0 1.0343e-35
3737 1 0.000635 0.00452641 -0.00762 -0.01782 4.13217e-17 2.38958e-17 2.16e-11 0 2.06859e-35
3824 1 0.000635 0.00562626 -0.006985 -0.01782 -1.44599e-16 -2.3895e-17 2.16e-11 0 4.0079e-35
3909 1 0.000635 0.00672611 -0.00762 -0.01782 6.19757e-17 2.38958e-17 2.16e-11 0 2.9736e-35
3995 1 0.000635 0.00782597 -0.006985 -0.01782 -6.77626e-21 -2.38967e-17 2.16e-11 0 1.0343e-35
4080 1 0.000635 0.00892582 -0.00762 -0.01782 -1.00513e-07 -2.41021e-07 -7.19696e-06 7.32617e-10 1.0343e-35
4166 1 0.000635 0.0100257 -0.006985 -0.01782 -0.000112427 6.40724e-05 -2.50193e-05 1.3065e-09 7.86712e-11
4251 1 0.000635 0.011116 -0.00760878 -0.0176501 7.06342e-10 -3.16431e-10 -3.36034e-09 2.06756e-09 1.84035e-09
4336 1 0.000635 0.0121479 -0.00692238 -0.0173425 9.29036e-10 -2.43626e-10 -3.77809e-09 2.52317e-09 1.50717e-09
2363 1 0.000635 -0.0130433 -0.00634181 -0.0174982 1.15755e-08 2.65112e-10 2.75227e-08 5.55773e-10 1.32276e-10
2448 1 0.000635 -0.0119704 -0.00571567 -0.0177713 1.4631e-10 4.87799e-10 -5.34936e-09 3.78593e-10 1.29872e-10
2532 1 0.000635 -0.0108715 -0.00635 -0.01782 -6.99021e-05 -8.30404e-05 8.9328e-06 1.52135e-10 4.50854e-11
2618 1 0.000635 -0.00977167 -0.005715 -0.01782 -4.01547e-09 6.955e-09 -1.03614e-06 2.03338e-11 6.85221e-35
2703 1 0.000635 -0.00867182 -0.00635 -0.01782 -1.18565e-10 2.05361e-10 -4.15428e-07 3.26282e-12 2.9736e-35
2789 1 0.000635 -0.00757197 -0.005715 -0.01782 1.44602e-16 4.76832e-17 2.16e-11 0 3.74932e-35
2874 1 0.000635 -0.00647211 -0.00635 -0.01782 -1.44609e-16 7.15816e-17 2.16e-11 0 4.0079e-35
2960 1 0.000635 -0.00537226 -0.005715 -0.01782 1.44604e-16 4.76841e-17 2.16e-11 5.26426e-25 3.74932e-35
3046 1 0.000635 -0.00427241 -0.00635 -0.01782 -1.13621e-16 7.75431e-17 2.16e-11 0 2.90896e-35
3133 1 0.000635 -0.00317256 -0.005715 -0.01782 2.0671e-17 4.76858e-17 2.16e-11 5.26426e-25 6.46435e-36
3219 1 0.000635 -0.0020727 -0.00635 -0.01782 -5.0822e-21 7.15842e-17 2.16e-11 0 1.0343e-35
3306 1 0.000635 -0.000972852 -0.005715 -0.01782 0 4.76866e-17 2.16e-11 0 5.17148e-36
3392 1 0.000635 0.000127 -0.00635 -0.01782 0 7.1585e-17 2.16e-11 0 1.0343e-35
3479 1 0.000635 0.00122685 -0.005715 -0.01782 0 4.76866e-17 2.16e-11 0 5.17148e-36
3565 1 0.000635 0.0023267 -0.00635 -0.01782 0 7.15842e-17 2.16e-11 0 1.0343e-35
3652 1 0.000635 0.00342656 -0.005715 -0.01782 4.13098e-17 4.76858e-17 2.16e-11 0 1.0343e-35
3738 1 0.000635 0.00452641 -0.00635 -0.01782 4.13183e-17 7.15816e-17 2.16e-11 0 2.06859e-35
3825 1 0.000635 0.00562626 -0.005715 -0.01782 -1.44597e-16 4.76841e-17 2.16e-11 0 3.74932e-35
3910 1 0.000635 0.00672611 -0.00635 -0.01782 6.19774e-17 7.15825e-17 2.16e-11 0 2.9736e-35
3996 1 0.000635 0.00782597 -0.005715 -0.01782 -6.77626e-21 4.76849e-17 2.16e-11 0 5.17148e-36
4081 1 0.000635 0.00892582 -0.00635 -0.01782 -2.19496e-08 -3.80177e-08 -1.50146e-06 4.28338e-11 1.0343e-35
4167 1 0.000635 0.0100257 -0.005715 -0.01782 -6.85466e-08 -1.18726e-07 -4.22677e-06 3.50965e-10 6.85221e-35
4252 1 0.000635 0.0111255 -0.00635 -0.01782 -0.000404862 -8.05914e-06 -0.000107334 1.88687e-09 5.43834e-10
4337 1 0.000635 0.0122206 -0.00571809 -0.017757 -1.4372e-10 -1.23591e-10 -3.71842e-09 2.74469e-09 1.19378e-09
2364 1 0.000635 -0.0130261 -0.00507353 -0.0174857 -1.39171e-09 1.12785e-09 -4.30385e-09 4.65091e-10 3.01116e-10
2533 1 0.000635 -0.0108715 -0.00508 -0.01782 -2.04012e-05 -1.19424e-05 -3.84044e-06 2.808e-10 2.47546e-12
2704 1 0.000635 -0.00867182 -0.00508 -0.01782 -6.19774e-17 -2.3845e-17 2.16e-11 0 1.42216e-35
2875 1 0.000635 -0.00647211 -0.00508 -0.01782 -1.44605e-16 -2.38442e-17 2.16e-11 0 3.49075e-35
3047 1 0.000635 -0.00427241 -0.00508 -0.01782 -1.03287e-16 -2.38433e-17 2.16e-11 1.57928e-24 2.45645e-35
3220 1 0.000635 -0.0020727 -0.00508 -0.01782 -3.38813e-21 -2.38442e-17 2.16e-11 0 2.58574e-36
3393 1 0.000635 0.000127 -0.00508 -0.01782 0 -2.38442e-17 2.16e-11 0 2.58574e-36
3566 1 0.000635 0.0023267 -0.00508 -0.01782 -3.38813e-21 -2.38459e-17 2.16e-11 0 2.58574e-36
3739 1 0.000635 0.00452641 -0.00508 -0.01782 4.13081e-17 -2.38433e-17 2.16e-11 5.26426e-25 2.84431e-35
3911 1 0.000635 0.00672611 -0.00508 -0.01782 6.19859e-17 -2.38442e-17 2.16e-11 0 1.42216e-35
4082 1 0.000635 0.00892582 -0.00508 -0.01782 -8.47033e-21 -2.3845e-17 2.16e-11 0 2.58574e-36
4253 1 0.000635 0.0111255 -0.00508 -0.01782 -4.79187e-05 2.72694e-05 -1.27513e-05 1.28022e-09 1.41229e-11
4422 1 0.000635 0.0132934 -0.00507813 -0.0175462 6.30949e-10 -1.20162e-09 -5.68504e-09 3.52053e-09 2.97758e-10
2365 1 0.000635 -0.0130093 -0.00380691 -0.017457 1.52629e-08 1.99692e-10 3.43588e-08 5.39139e-10 2.18391e-10
2449 1 0.000635 -0.0119714 -0.004445 -0.01782 -0.000172389 -0.000121318 7.02012e-05 4.51733e-10 1.4658e-10
2534 1 0.000635 -0.0108715 -0.00381 -0.01782 -2.15746e-07 -1.15437e-07 -6.13638e-06 3.65417e-10 4.65433e-35
2619 1 0.000635 -0.00977167 -0.004445 -0.01782 -4.70308e-09 8.14597e-09 -4.29609e-07 3.49113e-12 6.01185e-35
2705 1 0.000635 -0.00867182 -0.00381 -0.01782 -8.2623e-17 0 2.16e-11 1.05285e-24 2.06859e-35
2790 1 0.000635 -0.00757197 -0.004445 -0.01782 1.44602e-16 -5.96282e-17 2.16e-11 5.26426e-25 3.74932e-35
2876 1 0.000635 -0.00647211 -0.00381 -0.01782 -1.44605e-16 0 2.16e-11 0 3.23218e-35
2961 1 0.000635 -0.00537226 -0.004445 -0.01782 1.44604e-16 -5.9629e-17 2.16e-11 5.26426e-25 3.74932e-35
3048 1 0.000635 -0.00427241 -0.00381 -0.01782 -1.03291e-16 0 2.16e-11 0 1.68073e-35
3134 1 0.000635 -0.00317256 -0.004445 -0.01782 3.09963e-17 -5.36693e-17 2.16e-11 1.57928e-24 8.40366e-36
3221 1 0.000635 -0.0020727 -0.00381 -0.01782 -6.77626e-21 0 2.16e-11 2.10571e-24 0
3307 1 0.000635 -0.000972852 -0.004445 -0.01782 0 -4.77053e-17 2.16e-11 1.05285e-24 5.17148e-36
3394 1 0.000635 0.000127 -0.00381 -0.01782 0 0 2.16e-11 1.05285e-24 0
3480 1 0.000635 0.00122685 -0.004445 -0.01782 0 -4.77053e-17 2.16e-11 1.05285e-24 5.17148e-36
3567 1 0.000635 0.0023267 -0.00381 -0.01782 0 0 2.16e-11 2.10571e-24 0
3653 1 0.000635 0.00342656 -0.004445 -0.01782 3.09811e-17 -5.36701e-17 2.16e-11 1.05285e-24 8.40366e-36
3740 1 0.000635 0.00452641 -0.00381 -0.01782 4.13217e-17 7.70372e-34 2.16e-11 0 1.29287e-35
3826 1 0.000635 0.00562626 -0.004445 -0.01782 -1.44597e-16 -5.9629e-17 2.16e-11 5.26426e-25 3.74932e-35
3912 1 0.000635 0.00672611 -0.00381 -0.01782 8.26298e-17 0 2.16e-11 1.05285e-24 2.06859e-35
3997 1 0.000635 0.00782597 -0.004445 -0.01782 -3.38813e-21 -4.77061e-17 2.16e-11 1.05285e-24 5.17148e-36
4083 1 0.000635 0.00892582 -0.00381 -0.01782 -6.77626e-21 0 2.16e-11 1.05285e-24 0
4168 1 0.000635 0.0100257 -0.004445 -0.01782 2.23298e-08 3.86764e-08 -5.56406e-07 5.89227e-12 6.01185e-35
4254 1 0.000635 0.0111255 -0.00381 -0.01782 1.47829e-07 -3.80079e-08 -4.93211e-06 2.33689e-10 4.65433e-35
4338 1 0.000635 0.0122254 -0.004445 -0.01782 0.000150467 -0.000246913 4.76382e-05 2.89952e-09 3.71887e-10
4423 1 0.000635 0.013293 -0.0038086 -0.0175504 -2.00746e-09 -1.55268e-09 4.61864e-09 2.14231e-09 1.16224e-10
2366 1 0.000635 -0.0130099 -0.00253839 -0.0174576 2.17931e-09 2.21723e-10 4.92766e-09 5.03862e-10 6.25015e-11
2450 1 0.000635 -0.0119714 -0.003175 -0.01782 4.11809e-05 7.47645e-05 -5.22274e-06 5.17517e-10 5.629e-11
2535 1 0.000635 -0.0108715 -0.00254 -0.01782 -2.65224e-07 -2.66253e-08 -6.43339e-06 4.02281e-10 6.33506e-35
2620 1 0.000635 -0.00977167 -0.003175 -0.01782 -1.3427e-16 4.1748e-17 2.16e-11 5.26426e-25 5.81792e-35
2706 1 0.000635 -0.00867182 -0.00254 -0.01782 -7.2301e-17 -5.97417e-18 2.16e-11 0 1.61609e-35
2791 1 0.000635 -0.00757197 -0.003175 -0.01782 1.44602e-16 4.77053e-17 2.16e-11 5.26426e-25 3.55539e-35
2877 1 0.000635 -0.00647211 -0.00254 -0.01782 -1.44605e-16 -1.19365e-17 2.16e-11 0 3.23218e-35
2962 1 0.000635 -0.00537226 -0.003175 -0.01782 1.44604e-16 4.7707e-17 2.16e-11 0 3.55539e-35
3049 1 0.000635 -0.00427241 -0.00254 -0.01782 -1.03284e-16 -1.19373e-17 2.16e-11 5.26426e-25 1.93931e-35
3135 1 0.000635 -0.00317256 -0.003175 -0.01782 3.09963e-17 4.17472e-17 2.16e-11 1.05285e-24 6.46435e-36
3222 1 0.000635 -0.0020727 -0.00254 -0.01782 0 -1.43996e-20 2.16e-11 0 0
3308 1 0.000635 -0.000972852 -0.003175 -0.01782 0 3.57823e-17 2.16e-11 1.05285e-24 3.23218e-36
3395 1 0.000635 0.000127 -0.00254 -0.01782 0 -1.35525e-20 2.16e-11 0 0
3481 1 0.000635 0.00122685 -0.003175 -0.01782 0 3.57823e-17 2.16e-11 1.05285e-24 3.23218e-36
3568 1 0.000635 0.0023267 -0.00254 -0.01782 -6.77626e-21 -1.35525e-20 2.16e-11 0 0
3654 1 0.000635 0.00342656 -0.003175 -0.01782 3.09777e-17 4.17463e-17 2.16e-11 1.05285e-24 6.46435e-36
3741 1 0.000635 0.00452641 -0.00254 -0.01782 4.13115e-17 -1.19382e-17 2.16e-11 5.26426e-25 1.93931e-35
3827 1 0.000635 0.00562626 -0.003175 -0.01782 -1.44595e-16 4.77053e-17 2.16e-11 5.26426e-25 3.55539e-35
3913 1 0.000635 0.00672611 -0.00254 -0.01782 7.23095e-17 -5.97502e-18 2.16e-11 0 1.61609e-35
3998 1 0.000635 0.00782597 -0.003175 -0.01782 0 3.57823e-17 2.16e-11 1.05285e-24 3.23218e-36
4084 1 0.000635 0.00892582 -0.00254 -0.01782 -8.47033e-21 -1.27055e-20 2.16e-11 0 0
4169 1 0.000635 0.0100257 -0.003175 -0.01782 1.3427e-16 4.1748e-17 2.16e-11 5.26426e-25 5.81792e-35
4255 1 0.000635 0.0111255 -0.00254 -0.01782 1.48424e-07 -2.96093e-08 -4.87927e-06 2.28711e-10 6.33506e-35
4339 1 0.000635 0.0122254 -0.003175 -0.01782 4.46691e-05 3.8788e-06 1.84612e-05 2.99659e-10 6.73418e-12
4424 1 0.000635 0.0132877 -0.0025394 -0.0175342 -5.12281e-09 -1.77614e-09 1.27023e-08 3.32068e-10 1.46023e-11
2367 1 0.000635 -0.0130087 -0.00126933 -0.0174539 9.50591e-09 5.49079e-11 2.14517e-08 4.86719e-10 2.38702e-11
2451 1 0.000635 -0.0119714 -0.001905 -0.01782 8.72998e-06 3.38073e-05 7.26294e-06 4.84803e-10 1.05598e-11
2536 1 0.000635 -0.0108715 -0.00127 -0.01782 -2.68627e-07 -1.81763e-08 -6.44792e-06 4.04218e-10 6.33506e-35
2621 1 0.000635 -0.00977167 -0.001905 -0.01782 -1.44592e-16 -1.19229e-17 2.16e-11 5.26426e-25 6.39971e-35
2707 1 0.000635 -0.00867182 -0.00127 -0.01782 -7.2301e-17 5.96909e-18 2.16e-11 5.26426e-25 1.61609e-35
2792 1 0.000635 -0.00757197 -0.001905 -0.01782 1.44605e-16 -1.19229e-17 2.16e-11 0 3.29682e-35
2878 1 0.000635 -0.00647211 -0.00127 -0.01782 -1.44605e-16 1.19331e-17 2.16e-11 0 3.23218e-35
2963 1 0.000635 -0.00537226 -0.001905 -0.01782 1.44602e-16 -1.19246e-17 2.16e-11 0 3.29682e-35
3050 1 0.000635 -0.00427241 -0.00127 -0.01782 -1.13613e-16 5.96993e-18 2.16e-11 0 2.13324e-35
3136 1 0.000635 -0.00317256 -0.001905 -0.01782 4.13081e-17 -1.19229e-17 2.16e-11 0 5.81792e-36
3223 1 0.000635 -0.0020727 -0.00127 -0.01782 0 7.6233e-21 2.16e-11 0 0
3309 1 0.000635 -0.000972852 -0.001905 -0.01782 0 -1.19229e-17 2.16e-11 0 6.46435e-37
3396 1 0.000635 0.000127 -0.00127 -0.01782 0 6.77626e-21 2.16e-11 0 0
3482 1 0.000635 0.00122685 -0.001905 -0.01782 0 -1.19229e-17 2.16e-11 0 6.46435e-37
3569 1 0.000635 0.0023267 -0.00127 -0.01782 -6.77626e-21 6.77626e-21 2.16e-11 0 0
3655 1 0.000635 0.00342656 -0.001905 -0.01782 2.06608e-17 -1.19229e-17 2.16e-11 0 1.93931e-36
3742 1 0.000635 0.00452641 -0.00127 -0.01782 4.13149e-17 1.19331e-17 2.16e-11 5.26426e-25 1.93931e-35
3828 1 0.000635 0.00562626 -0.001905 -0.01782 -1.44599e-16 -1.19229e-17 2.16e-11 0 3.29682e-35
3914 1 0.000635 0.00672611 -0.00127 -0.01782 7.23078e-17 5.96909e-18 2.16e-11 5.26426e-25 1.61609e-35
3999 1 0.000635 0.00782597 -0.001905 -0.01782 -6.77626e-21 -1.19229e-17 2.16e-11 5.26426e-25 6.46435e-37
4085 1 0.000635 0.00892582 -0.00127 -0.01782 -6.77626e-21 6.77626e-21 2.16e-11 0 0
4170 1 0.000635 0.0100257 -0.001905 -0.01782 1.44599e-16 -1.19229e-17 2.16e-11 0 6.39971e-35
4256 1 0.000635 0.0111255 -0.00127 -0.01782 1.61421e-07 -1.24761e-09 -5.01004e-06 2.41235e-10 6.33506e-35
4340 1 0.000635 0.0122254 -0.001905 -0.01782 6.24327e-06 6.31567e-06 9.56983e-06 2.93351e-10 5.20254e-13
4425 1 0.000635 0.0132881 -0.00126978 -0.0175362 -8.00757e-10 -1.37332e-09 -2.5873e-09 3.232e-10 3.31557e-12
2368 1 0.000635 -0.0130079 -1.58908e-08 -0.0174515 -1.44409e-09 3.21909e-10 -5.59437e-09 4.79041e-10 1.48975e-11
2452 1 0.000635 -0.0119714 -0.000635 -0.01782 -1.28366e-06 9.33072e-06 1.12159e-05 4.70261e-10 8.11214e-13
2622 1 0.000635 -0.00977167 -0.000635 -0.01782 -1.44599e-16 -8.47033e-21 2.16e-11 0 6.33506e-35
2793 1 0.000635 -0.00757197 -0.000635 -0.01782 1.44604e-16 -1.19339e-17 2.16e-11 5.26426e-25 3.23218e-35
2964 1 0.000635 -0.00537226 -0.000635 -0.01782 1.44604e-16 -1.19365e-17 2.16e-11 0 3.23218e-35
3137 1 0.000635 -0.00317256 -0.000635 -0.01782 4.13183e-17 -8.47033e-21 2.16e-11 0 5.17148e-36
3310 1 0.000635 -0.000972852 -0.000635 -0.01782 0 -8.47033e-21 2.16e-11 0 0
3483 1 0.000635 0.00122685 -0.000635 -0.01782 0 -8.47033e-21 2.16e-11 0 0
3656 1 0.000635 0.00342656 -0.000635 -0.01782 3.09811e-17 -5.97078e-18 2.16e-11 5.26426e-25 3.23218e-36
3829 1 0.000635 0.00562626 -0.000635 -0.01782 -1.44597e-16 -1.19339e-17 2.16e-11 5.26426e-25 3.23218e-35
4000 1 0.000635 0.00782597 -0.000635 -0.01782 0 -8.47033e-21 2.16e-11 0 0
4171 1 0.000635 0.0100257 -0.000635 -0.01782 1.44599e-16 -8.47033e-21 2.16e-11 0 6.33506e-35
4341 1 0.000635 0.0122254 -0.000635 -0.01782 5.83877e-07 2.5843e-06 7.6367e-06 3.04998e-10 6.5348e-14
4426 1 0.000635 0.0132885 4.26836e-09 -0.0175378 9.61523e-09 -8.15352e-10 -3.39954e-08 3.26553e-10 1.51977e-12
2453 1 0.000635 -0.0119714 0.000635 -0.01782 -3.17345e-06 -9.00628e-06 1.20311e-05 4.69204e-10 8.06051e-13
2537 1 0.000635 -0.0108715 0 -0.01782 -2.72921e-07 -4.19557e-09 -6.48764e-06 4.09358e-10 6.33506e-35
2623 1 0.000635 -0.00977167 0.000635 -0.01782 -1.44599e-16 -3.38813e-21 2.16e-11 0 6.33506e-35
2708 1 0.000635 -0.00867182 0 -0.01782 -8.26247e-17 5.92923e-21 2.16e-11 0 2.06859e-35
2794 1 0.000635 -0.00757197 0.000635 -0.01782 1.44602e-16 -3.38813e-21 2.16e-11 0 3.23218e-35
2879 1 0.000635 -0.00647211 0 -0.01782 -1.44605e-16 5.0822e-21 2.16e-11 0 3.23218e-35
2965 1 0.000635 -0.00537226 0.000635 -0.01782 1.44602e-16 -3.38813e-21 2.16e-11 0 3.23218e-35
3051 1 0.000635 -0.00427241 0 -0.01782 -1.03282e-16 5.92923e-21 2.16e-11 0 1.68073e-35
3138 1 0.000635 -0.00317256 0.000635 -0.01782 4.13149e-17 -3.38813e-21 2.16e-11 0 5.17148e-36
3224 1 0.000635 -0.0020727 0 -0.01782 0 6.77626e-21 2.16e-11 0 0
3311 1 0.000635 -0.000972852 0.000635 -0.01782 0 -3.38813e-21 2.16e-11 0 0
3397 1 0.000635 0.000127 0 -0.01782 0 6.77626e-21 2.16e-11 0 0
3484 1 0.000635 0.00122685 0.000635 -0.01782 0 -3.38813e-21 2.16e-11 0 0
3570 1 0.000635 0.0023267 0 -0.01782 -3.38813e-21 5.0822e-21 2.16e-11 5.26426e-25 0
3657 1 0.000635 0.00342656 0.000635 -0.01782 2.06574e-17 -3.38813e-21 2.16e-11 0 1.29287e-36
3743 1 0.000635 0.00452641 0 -0.01782 4.13132e-17 5.92923e-21 2.16e-11 0 1.29287e-35
3830 1 0.000635 0.00562626 0.000635 -0.01782 -1.44595e-16 -3.38813e-21 2.16e-11 0 3.23218e-35
3915 1 0.000635 0.00672611 0 -0.01782 8.26315e-17 5.92923e-21 2.16e-11 0 2.06859e-35
4001 1 0.000635 0.00782597 0.000635 -0.01782 0 -3.38813e-21 2.16e-11 0 0
4086 1 0.000635 0.00892582 0 -0.01782 -6.77626e-21 6.77626e-21 2.16e-11 0 0
4172 1 0.000635 0.0100257 0.000635 -0.01782 1.44599e-16 -3.38813e-21 2.16e-11 0 6.33506e-35
4257 1 0.000635 0.0111255 0 -0.01782 1.62042e-07 1.19812e-10 -5.00435e-06 2.4068e-10 6.33506e-35
4342 1 0.000635 0.0122254 0.000635 -0.01782 6.06547e-07 -2.3366e-06 7.63891e-06 3.04905e-10 5.4401e-14
2369 1 0.000635 -0.0130076 0.00126932 -0.0174506 9.45427e-10 6.18375e-10 -4.18819e-10 4.81023e-10 2.37855e-11
2454 1 0.000635 -0.0119714 0.001905 -0.01782 3.46871e-06 -3.24369e-05 9.49445e-06 4.79169e-10 9.56636e-12
2538 1 0.000635 -0.0108715 0.00127 -0.01782 -2.73636e-07 9.91499e-09 -6.5048e-06 4.11568e-10 6.33506e-35
2624 1 0.000635 -0.00977167 0.001905 -0.01782 -1.44595e-16 1.19221e-17 2.16e-11 0 6.39971e-35
2709 1 0.000635 -0.00867182 0.00127 -0.01782 -8.26264e-17 0 2.16e-11 0 2.06859e-35
2795 1 0.000635 -0.00757197 0.001905 -0.01782 1.44604e-16 1.19221e-17 2.16e-11 0 3.29682e-35
2880 1 0.000635 -0.00647211 0.00127 -0.01782 -1.44605e-16 0 2.16e-11 0 3.23218e-35
2966 1 0.000635 -0.00537226 0.001905 -0.01782 1.44604e-16 1.19238e-17 2.16e-11 0 3.29682e-35
3052 1 0.000635 -0.00427241 0.00127 -0.01782 -1.0328e-16 0 2.16e-11 0 1.68073e-35
3139 1 0.000635 -0.00317256 0.001905 -0.01782 4.13115e-17 1.19229e-17 2.16e-11 0 5.81792e-36
3225 1 0.000635 -0.0020727 0.00127 -0.01782 0 0 2.16e-11 0 0
3312 1 0.000635 -0.000972852 0.001905 -0.01782 0 1.19212e-17 2.16e-11 0 6.46435e-37
3398 1 0.000635 0.000127 0.00127 -0.01782 0 0 2.16e-11 0 0
3485 1 0.000635 0.00122685 0.001905 -0.01782 0 1.19212e-17 2.16e-11 0 6.46435e-37
3571 1 0.000635 0.0023267 0.00127 -0.01782 -6.77626e-21 0 2.16e-11 0 0
3658 1 0.000635 0.00342656 0.001905 -0.01782 2.06591e-17 1.19221e-17 2.16e-11 0 1.93931e-36
3744 1 0.000635 0.00452641 0.00127 -0.01782 4.13115e-17 0 2.16e-11 0 1.29287e-35
3831 1 0.000635 0.00562626 0.001905 -0.01782 -1.44597e-16 1.19221e-17 2.16e-11 0 3.29682e-35
3916 1 0.000635 0.00672611 0.00127 -0.01782 8.26331e-17 0 2.16e-11 0 2.06859e-35
4002 1 0.000635 0.00782597 0.001905 -0.01782 -3.38813e-21 1.19221e-17 2.16e-11 0 6.46435e-37
4087 1 0.000635 0.00892582 0.00127 -0.01782 -6.77626e-21 0 2.16e-11 0 0
4173 1 0.000635 0.0100257 0.001905 -0.01782 1.44599e-16 1.19212e-17 2.16e-11 0 6.39971e-35
4258 1 0.000635 0.0111255 0.00127 -0.01782 1.6124e-07 1.45031e-09 -5.00708e-06 2.40944e-10 6.33506e-35
4343 1 0.000635 0.0122254 0.001905 -0.01782 6.23068e-06 -6.07513e-06 9.55284e-06 2.93065e-10 4.9238e-13
4427 1 0.000635 0.0132881 0.00126978 -0.0175364 -2.61482e-09 -3.45894e-10 3.46775e-09 3.2304e-10 3.26738e-12
2370 1 0.000635 -0.0130077 0.00253841 -0.0174511 -1.1699e-10 9.73065e-10 -2.40409e-09 4.95932e-10 6.19333e-11
2455 1 0.000635 -0.0119714 0.003175 -0.01782 3.64528e-05 -7.54784e-05 -3.30159e-06 5.06284e-10 5.60555e-11
2539 1 0.000635 -0.0108715 0.00254 -0.01782 -2.75264e-07 1.78308e-08 -6.54653e-06 4.16999e-10 6.33506e-35
2625 1 0.000635 -0.00977167 0.003175 -0.01782 -1.3427e-16 -4.1748e-17 2.16e-11 5.26426e-25 5.81792e-35
2710 1 0.000635 -0.00867182 0.00254 -0.01782 -7.2301e-17 5.97417e-18 2.16e-11 0 1.61609e-35
2796 1 0.000635 -0.00757197 0.003175 -0.01782 1.44602e-16 -4.77053e-17 2.16e-11 5.26426e-25 3.55539e-35
2881 1 0.000635 -0.00647211 0.00254 -0.01782 -1.44605e-16 1.19365e-17 2.16e-11 0 3.23218e-35
2967 1 0.000635 -0.00537226 0.003175 -0.01782 1.44604e-16 -4.7707e-17 2.16e-11 0 3.55539e-35
3053 1 0.000635 -0.00427241 0.00254 -0.01782 -1.03284e-16 1.19373e-17 2.16e-11 5.26426e-25 1.93931e-35
3140 1 0.000635 -0.00317256 0.003175 -0.01782 3.09963e-17 -4.17472e-17 2.16e-11 1.05285e-24 6.46435e-36
3226 1 0.000635 -0.0020727 0.00254 -0.01782 0 1.43996e-20 2.16e-11 0 0
3313 1 0.000635 -0.000972852 0.003175 -0.01782 0 -3.57823e-17 2.16e-11 1.05285e-24 3.23218e-36
3399 1 0.000635 0.000127 0.00254 -0.01782 0 1.35525e-20 2.16e-11 0 0
3486 1 0.000635 0.00122685 0.003175 -0.01782 0 -3.57823e-17 2.16e-11 1.05285e-24 3.23218e-36
3572 1 0.000635 0.0023267 0.00254 -0.01782 -6.77626e-21 1.35525e-20 2.16e-11 0 0
3659 1 0.000635 0.00342656 0.003175 -0.01782 3.09777e-17 -4.17463e-17 2.16e-11 1.05285e-24 6.46435e-36
3745 1 0.000635 0.00452641 0.00254 -0.01782 4.13115e-17 1.19382e-17 2.16e-11 5.26426e-25 1.93931e-35
3832 1 0.000635 0.00562626 0.003175 -0.01782 -1.44595e-16 -4.77053e-17 2.16e-11 5.26426e-25 3.55539e-35
3917 1 0.000635 0.00672611 0.00254 -0.01782 7.23095e-17 5.97502e-18 2.16e-11 0 1.61609e-35
4003 1 0.000635 0.00782597 0.003175 -0.01782 0 -3.57823e-17 2.16e-11 1.05285e-24 3.23218e-36
4088 1 0.000635 0.00892582 0.00254 -0.01782 -8.47033e-21 1.27055e-20 2.16e-11 0 0
4174 1 0.000635 0.0100257 0.003175 -0.01782 1.3427e-16 -4.1748e-17 2.16e-11 5.26426e-25 5.81792e-35
4259 1 0.000635 0.0111255 0.00254 -0.01782 1.48108e-07 2.96732e-08 -4.87369e-06 2.28187e-10 6.33506e-35
4344 1 0.000635 0.0122254 0.003175 -0.01782 4.44742e-05 -3.577e-06 1.83707e-05 2.99234e-10 6.65458e-12
4428 1 0.000635 0.0132878 0.00253941 -0.0175345 -2.73775e-09 -2.06339e-10 6.1928e-09 3.31738e-10 1.43091e-11
2371 1 0.000635 -0.0130059 0.00380694 -0.0174475 9.49964e-09 1.46505e-09 1.91218e-08 5.20895e-10 2.08125e-10
2456 1 0.000635 -0.0119714 0.004445 -0.01782 -0.000176208 0.000123337 7.34072e-05 4.46221e-10 1.53082e-10
2540 1 0.000635 -0.0108715 0.00381 -0.01782 -2.24483e-07 1.16757e-07 -6.24466e-06 3.78789e-10 4.65433e-35
2626 1 0.000635 -0.00977167 0.004445 -0.01782 -4.72624e-09 -8.18608e-09 -4.23236e-07 3.38835e-12 6.01185e-35