ITEM: TIMESTEP
1740000
ITEM: NUMBER OF ATOMS
6793
ITEM: BOX BOUNDS ff ff ff
-8.9999999999999997e-02 8.9999999999999997e-02
-8.9999999999999997e-02 8.9999999999999997e-02
-4.0000000000000001e-02 4.0000000000000001e-02
ITEM: ATOMS id type radius x y z fx fy fz c_bendingE c_stretchingE
3213 1 0.000635 -0.00207199 -0.0139547 -0.0186047 -1.13484e-09 -8.77831e-10 -7.64736e-09 5.67337e-09 3.65484e-10
3299 1 0.000635 -0.000974606 -0.0145874 -0.0185528 -3.61154e-10 -3.24552e-10 -7.64842e-09 5.22984e-09 1.06329e-10
3386 1 0.000635 0.000125657 -0.0139634 -0.0186566 1.11454e-09 -4.03573e-09 -2.21429e-08 3.81919e-09 4.14164e-11
3041 1 0.000635 -0.0042669 -0.0126865 -0.0186159 -2.9094e-10 -5.02842e-11 -1.57112e-09 3.64911e-09 1.35791e-10
3127 1 0.000635 -0.0031688 -0.0133202 -0.0186136 -1.78146e-09 -7.27251e-10 -6.42967e-09 4.3283e-09 3.5016e-10
3214 1 0.000635 -0.0020727 -0.0127 -0.018792 -9.63238e-05 1.88661e-05 -7.31796e-06 4.89845e-09 8.02656e-11
3300 1 0.000635 -0.000973381 -0.0133355 -0.0187667 1.88004e-10 2.59166e-10 1.72097e-09 3.82782e-09 5.28362e-11
3387 1 0.000635 0.000127 -0.0127 -0.018792 -5.7111e-05 -5.34414e-05 1.10462e-06 3.88133e-10 1.83215e-11
3473 1 0.000635 0.00122572 -0.0133338 -0.0187337 -1.52972e-10 9.43978e-10 1.22075e-09 4.91287e-10 1.57887e-10
3560 1 0.000635 0.0023267 -0.0127 -0.018792 7.87923e-05 -0.000227668 0.000116923 6.18155e-10 2.61687e-10
3646 1 0.000635 0.00340025 -0.0132792 -0.018426 -2.11429e-09 6.93373e-09 1.60755e-08 6.01249e-10 3.13191e-10
3733 1 0.000635 0.00450965 -0.012667 -0.0185079 4.61244e-10 -9.77494e-10 -2.53523e-09 3.97496e-10 4.85146e-11
2870 1 0.000635 -0.00646429 -0.0114183 -0.0186185 -6.97437e-10 -1.58491e-10 -3.1967e-09 2.85644e-09 5.77766e-11
2955 1 0.000635 -0.00536544 -0.0120525 -0.0186174 -7.69497e-10 -5.67382e-10 -4.73527e-09 3.18127e-09 6.30434e-11
3042 1 0.000635 -0.00427241 -0.01143 -0.018792 3.21747e-07 6.26476e-05 -1.80621e-05 2.86293e-09 1.89692e-11
3128 1 0.000635 -0.00317256 -0.012065 -0.018792 -4.06461e-05 9.34024e-05 -2.07095e-05 3.58004e-09 7.30044e-11
3215 1 0.000635 -0.0020727 -0.01143 -0.018792 3.289e-08 -6.7964e-08 -3.20583e-06 9.78318e-11 5.17148e-36
3301 1 0.000635 -0.000972852 -0.012065 -0.018792 2.65884e-08 -3.90036e-05 -2.52687e-06 1.05682e-10 6.87756e-12
3388 1 0.000635 0.000127 -0.01143 -0.018792 1.18356e-08 -1.69407e-21 -1.19341e-06 2.69949e-11 5.17148e-36
3474 1 0.000635 0.00122685 -0.012065 -0.018792 -1.82073e-08 -6.35448e-06 -5.394e-06 4.13169e-10 1.61909e-13
3561 1 0.000635 0.0023267 -0.01143 -0.018792 2.78696e-07 -1.54242e-07 -6.99147e-06 5.20655e-10 5.17148e-36
3647 1 0.000635 0.00342656 -0.012065 -0.018792 6.27052e-05 4.92804e-05 -1.559e-06 4.69337e-10 5.75681e-11
3734 1 0.000635 0.00452641 -0.01143 -0.018792 2.52592e-05 2.31377e-05 2.55487e-06 3.22147e-10 1.03932e-11
3820 1 0.000635 0.00561466 -0.0120431 -0.0185595 1.03373e-09 -2.73703e-09 -9.40508e-09 3.04239e-10 9.53048e-12
3906 1 0.000635 0.00671782 -0.0114148 -0.0185971 -1.72159e-11 -3.01899e-10 -1.22604e-09 2.51988e-10 2.77364e-12
2785 1 0.000635 -0.00756321 -0.0107837 -0.0186178 3.77836e-10 5.88858e-10 1.36206e-09 2.62904e-09 8.45084e-11
2956 1 0.000635 -0.00537226 -0.010795 -0.018792 3.1005e-05 3.77406e-05 -1.58816e-05 2.37349e-09 8.88371e-12
3129 1 0.000635 -0.00317256 -0.010795 -0.018792 -6.22803e-10 -5.64541e-08 -3.11548e-06 9.22763e-11 6.46435e-36
3302 1 0.000635 -0.000972852 -0.010795 -0.018792 4.65802e-09 -1.69407e-21 -2.23299e-07 9.4297e-13 5.17148e-36
3475 1 0.000635 0.00122685 -0.010795 -0.018792 1.00044e-08 0 -5.13755e-07 4.99287e-12 5.17148e-36
3648 1 0.000635 0.00342656 -0.010795 -0.018792 1.74282e-07 -1.00499e-07 -5.2819e-06 2.8311e-10 1.0343e-35
3821 1 0.000635 0.00562626 -0.010795 -0.018792 1.29154e-05 1.29684e-05 3.04697e-06 2.34339e-10 2.91488e-12
3992 1 0.000635 0.00782046 -0.0107849 -0.0186306 -2.55694e-11 1.19466e-10 -8.69302e-10 1.30368e-09 5.942e-11
4077 1 0.000635 0.00890185 -0.0113839 -0.018342 -2.04581e-09 2.4369e-09 9.69404e-09 2.54359e-09 1.46576e-11
2615 1 0.000635 -0.00975923 -0.0095119 -0.0185971 1.00691e-09 -6.35136e-10 -1.99142e-09 2.58197e-09 2.45234e-10
2700 1 0.000635 -0.00866178 -0.0101484 -0.0186123 1.00888e-09 1.75794e-10 9.4402e-10 2.5123e-09 1.32331e-10
2786 1 0.000635 -0.00757197 -0.009525 -0.018792 7.76364e-05 3.60107e-06 -1.28808e-05 1.60839e-09 4.56356e-11
2871 1 0.000635 -0.00647211 -0.01016 -0.018792 5.54309e-05 1.84807e-05 -1.41023e-05 1.97667e-09 2.07205e-11
2957 1 0.000635 -0.00537226 -0.009525 -0.018792 -3.6321e-08 -4.13344e-08 -3.07813e-06 9.00672e-11 3.74932e-35
3043 1 0.000635 -0.00427241 -0.01016 -0.018792 -2.11671e-08 -4.75993e-08 -3.08527e-06 9.04826e-11 2.71503e-35
3130 1 0.000635 -0.00317256 -0.009525 -0.018792 2.0671e-17 0 2.16e-11 1.05285e-24 6.46435e-36
3216 1 0.000635 -0.0020727 -0.01016 -0.018792 -6.77626e-21 0 2.16e-11 0 5.17148e-36
3303 1 0.000635 -0.000972852 -0.009525 -0.018792 0 0 2.16e-11 0 5.17148e-36
3389 1 0.000635 0.000127 -0.01016 -0.018792 0 0 2.16e-11 0 5.17148e-36
3476 1 0.000635 0.00122685 -0.009525 -0.018792 0 0 2.16e-11 0 5.17148e-36
3562 1 0.000635 0.0023267 -0.01016 -0.018792 0 0 2.16e-11 0 5.17148e-36
3649 1 0.000635 0.00342656 -0.009525 -0.018792 4.13115e-17 0 2.16e-11 0 1.0343e-35
3735 1 0.000635 0.00452641 -0.01016 -0.018792 1.07987e-07 -6.90301e-08 -4.22566e-06 1.77007e-10 3.10289e-35
3822 1 0.000635 0.00562626 -0.009525 -0.018792 7.60736e-08 -4.55229e-08 -3.4743e-06 1.18872e-10 3.74932e-35
3907 1 0.000635 0.00672611 -0.01016 -0.018792 2.42e-05 -5.21552e-06 5.55397e-06 1.83102e-10 3.91681e-12
3993 1 0.000635 0.00782597 -0.009525 -0.018792 2.14223e-05 -2.59094e-05 4.26723e-06 4.83413e-10 3.58529e-12
4078 1 0.000635 0.00892184 -0.01015 -0.0186419 8.80687e-10 -6.9207e-10 -2.58924e-09 2.53769e-09 1.42323e-10
4164 1 0.000635 0.0100003 -0.00949156 -0.0184914 -2.16004e-09 1.97055e-09 7.60265e-09 2.28479e-09 2.7861e-10
2446 1 0.000635 -0.0119565 -0.00824593 -0.0185352 2.15681e-09 -5.67529e-10 4.94358e-09 4.00913e-09 3.58426e-11
2530 1 0.000635 -0.0108566 -0.00887753 -0.018572 1.5264e-10 -2.03295e-09 -5.81014e-09 2.99144e-09 1.08379e-10
2616 1 0.000635 -0.00977167 -0.008255 -0.018792 -2.1764e-05 -9.90258e-05 1.77319e-05 8.72104e-10 5.60973e-11
2701 1 0.000635 -0.00867182 -0.00889 -0.018792 0.000105064 -8.2354e-06 -1.32681e-05 1.23778e-09 9.02982e-11
2787 1 0.000635 -0.00757197 -0.008255 -0.018792 -5.45637e-08 -3.92282e-08 -3.25746e-06 1.01291e-10 4.0079e-35
2872 1 0.000635 -0.00647211 -0.00889 -0.018792 -4.68774e-08 -3.82704e-08 -3.11704e-06 9.24146e-11 3.74932e-35
2958 1 0.000635 -0.00537226 -0.008255 -0.018792 1.44607e-16 -7.15799e-17 2.16e-11 5.26426e-25 4.0079e-35
3044 1 0.000635 -0.00427241 -0.00889 -0.018792 -1.03289e-16 -4.76841e-17 2.16e-11 1.05285e-24 2.71503e-35
3131 1 0.000635 -0.00317256 -0.008255 -0.018792 3.09912e-17 -7.75431e-17 2.16e-11 5.26426e-25 1.87466e-35
3217 1 0.000635 -0.0020727 -0.00889 -0.018792 -3.38813e-21 -4.76866e-17 2.16e-11 0 5.17148e-36
3304 1 0.000635 -0.000972852 -0.008255 -0.018792 0 -7.15833e-17 2.16e-11 0 1.0343e-35
3390 1 0.000635 0.000127 -0.00889 -0.018792 0 -4.76866e-17 2.16e-11 0 5.17148e-36
3477 1 0.000635 0.00122685 -0.008255 -0.018792 0 -7.15833e-17 2.16e-11 0 1.0343e-35
3563 1 0.000635 0.0023267 -0.00889 -0.018792 0 -4.76858e-17 2.16e-11 0 5.17148e-36
3650 1 0.000635 0.00342656 -0.008255 -0.018792 4.13098e-17 -7.15825e-17 2.16e-11 0 1.0343e-35
3736 1 0.000635 0.00452641 -0.00889 -0.018792 4.13115e-17 -4.76841e-17 2.16e-11 0 3.10289e-35
3823 1 0.000635 0.00562626 -0.008255 -0.018792 -1.446e-16 -7.15791e-17 2.16e-11 0 4.0079e-35
3908 1 0.000635 0.00672611 -0.00889 -0.018792 4.36399e-08 -5.11733e-08 -3.04226e-06 8.95499e-11 1.68073e-35
3994 1 0.000635 0.00782597 -0.008255 -0.018792 -2.34368e-08 -1.24693e-07 -4.07988e-06 1.74183e-10 1.0343e-35
4079 1 0.000635 0.00892582 -0.00889 -0.018792 -0.00010949 0.000122609 -3.99249e-05 1.2448e-09 9.48157e-11
4165 1 0.000635 0.0100257 -0.008255 -0.018792 0.000441346 8.64234e-05 0.000131715 1.78201e-09 1.2279e-09
2362 1 0.000635 -0.0130534 -0.00761088 -0.0184594 1.03243e-09 -2.88326e-09 6.57678e-10 3.30308e-09 1.15569e-10
2447 1 0.000635 -0.0119677 -0.00698406 -0.0186755 6.5608e-10 -1.50836e-09 -1.17646e-10 4.8182e-10 1.17036e-10
2531 1 0.000635 -0.0108709 -0.00761974 -0.018746 -3.62363e-10 -1.40455e-09 -1.14673e-08 5.92232e-10 1.84502e-11
2617 1 0.000635 -0.00977167 -0.006985 -0.018792 -6.76996e-06 -3.85314e-06 -2.50638e-06 1.02999e-10 2.6695e-13
2702 1 0.000635 -0.00867182 -0.00762 -0.018792 -7.36854e-08 -2.55701e-08 -3.52378e-06 1.19475e-10 2.9736e-35
2788 1 0.000635 -0.00757197 -0.006985 -0.018792 1.44605e-16 -2.38958e-17 2.16e-11 0 4.0079e-35
2873 1 0.000635 -0.00647211 -0.00762 -0.018792 -1.44609e-16 2.38967e-17 2.16e-11 0 4.0079e-35
2959 1 0.000635 -0.00537226 -0.006985 -0.018792 1.44605e-16 -2.38958e-17 2.16e-11 0 4.0079e-35
3045 1 0.000635 -0.00427241 -0.00762 -0.018792 -1.13623e-16 2.98573e-17 2.16e-11 0 2.90896e-35
3132 1 0.000635 -0.00317256 -0.006985 -0.018792 3.09912e-17 -2.98573e-17 2.16e-11 0 1.87466e-35
3218 1 0.000635 -0.0020727 -0.00762 -0.018792 -1.69407e-21 2.38958e-17 2.16e-11 0 1.0343e-35
3305 1 0.000635 -0.000972852 -0.006985 -0.018792 0 -2.38967e-17 2.16e-11 0 1.0343e-35
3391 1 0.000635 0.000127 -0.00762 -0.018792 0 2.38967e-17 2.16e-11 0 1.0343e-35
3478 1 0.000635 0.00122685 -0.006985 -0.018792 0 -2.38967e-17 2.16e-11 0 1.0343e-35
3564 1 0.000635 0.0023267 -0.00762 -0.018792 0 2.38967e-17 2.16e-11 0 1.0343e-35
3651 1 0.000635 0.00342656 -0.006985 -0.018792 4.13081e-17 -2.38967e-17 2.16e-11 0 1.0343e-35
3737 1 0.000635 0.00452641 -0.00762 -0.018792 4.13217e-17 2.38958e-17 2.16e-11 0 2.06859e-35
3824 1 0.000635 0.00562626 -0.006985 -0.018792 -1.44599e-16 -2.3895e-17 2.16e-11 0 4.0079e-35
3909 1 0.000635 0.00672611 -0.00762 -0.018792 6.19757e-17 2.38958e-17 2.16e-11 0 2.9736e-35
3995 1 0.000635 0.00782597 -0.006985 -0.018792 -6.77626e-21 -2.38967e-17 2.16e-11 0 1.0343e-35
4080 1 0.000635 0.00892582 -0.00762 -0.018792 -1.02614e-07 -2.38631e-07 -7.26018e-06 7.55444e-10 1.0343e-35
4166 1 0.000635 0.0100257 -0.006985 -0.018792 -0.000122505 6.98443e-05 -2.732e-05 1.37014e-09 9.34744e-11
4251 1 0.000635 0.0111152 -0.00760837 -0.0186169 -9.66478e-10 1.09006e-09 6.39076e-09 2.19646e-09 1.92117e-09
2363 1 0.000635 -0.0130425 -0.00634185 -0.0184677 1.50171e-09 -2.36229e-09 3.38368e-09 5.76125e-10 1.28141e-10
2448 1 0.000635 -0.0119704 -0.00571575 -0.0187441 2.75932e-09 -5.2396e-10 1.55861e-08 3.75563e-10 1.3722e-10
2532 1 0.000635 -0.0108715 -0.00635 -0.018792 -6.73865e-05 -8.61113e-05 8.63447e-06 1.58091e-10 4.5465e-11
2618 1 0.000635 -0.00977167 -0.005715 -0.018792 -4.49525e-09 7.786e-09 -1.02641e-06 1.99533e-11 6.85221e-35
2703 1 0.000635 -0.00867182 -0.00635 -0.018792 -4.28189e-10 7.41645e-10 -4.05492e-07 3.10859e-12 2.9736e-35
2789 1 0.000635 -0.00757197 -0.005715 -0.018792 1.44602e-16 4.76832e-17 2.16e-11 0 3.74932e-35
2874 1 0.000635 -0.00647211 -0.00635 -0.018792 -1.44609e-16 7.15816e-17 2.16e-11 0 4.0079e-35
2960 1 0.000635 -0.00537226 -0.005715 -0.018792 1.44604e-16 4.76841e-17 2.16e-11 5.26426e-25 3.74932e-35
3046 1 0.000635 -0.00427241 -0.00635 -0.018792 -1.13621e-16 7.75431e-17 2.16e-11 0 2.90896e-35
3133 1 0.000635 -0.00317256 -0.005715 -0.018792 2.0671e-17 4.76858e-17 2.16e-11 5.26426e-25 6.46435e-36
3219 1 0.000635 -0.0020727 -0.00635 -0.018792 -5.0822e-21 7.15842e-17 2.16e-11 0 1.0343e-35
3306 1 0.000635 -0.000972852 -0.005715 -0.018792 0 4.76866e-17 2.16e-11 0 5.17148e-36
3392 1 0.000635 0.000127 -0.00635 -0.018792 0 7.1585e-17 2.16e-11 0 1.0343e-35
3479 1 0.000635 0.00122685 -0.005715 -0.018792 0 4.76866e-17 2.16e-11 0 5.17148e-36
3565 1 0.000635 0.0023267 -0.00635 -0.018792 0 7.15842e-17 2.16e-11 0 1.0343e-35
3652 1 0.000635 0.00342656 -0.005715 -0.018792 4.13098e-17 4.76858e-17 2.16e-11 0 1.0343e-35
3738 1 0.000635 0.00452641 -0.00635 -0.018792 4.13183e-17 7.15816e-17 2.16e-11 0 2.06859e-35
3825 1 0.000635 0.00562626 -0.005715 -0.018792 -1.44597e-16 4.76841e-17 2.16e-11 0 3.74932e-35
3910 1 0.000635 0.00672611 -0.00635 -0.018792 6.19774e-17 7.15825e-17 2.16e-11 0 2.9736e-35
3996 1 0.000635 0.00782597 -0.005715 -0.018792 -6.77626e-21 4.76849e-17 2.16e-11 0 5.17148e-36
4081 1 0.000635 0.00892582 -0.00635 -0.018792 -2.16824e-08 -3.75551e-08 -1.54736e-06 4.55024e-11 1.0343e-35
4167 1 0.000635 0.0100257 -0.005715 -0.018792 -6.79337e-08 -1.17665e-07 -4.37927e-06 3.77824e-10 6.85221e-35
4252 1 0.000635 0.0111255 -0.00635 -0.018792 -0.000427971 -2.93929e-05 -0.000114654 1.99212e-09 6.12106e-10
4337 1 0.000635 0.0122199 -0.00571826 -0.0187226 -1.05368e-09 1.06602e-09 9.01929e-09 2.90972e-09 1.41184e-09
2364 1 0.000635 -0.0130238 -0.00507352 -0.0184501 3.93556e-09 -1.76577e-09 9.62321e-09 4.66713e-10 2.95882e-10
2533 1 0.000635 -0.0108715 -0.00508 -0.018792 -2.2245e-05 -1.30155e-05 -3.89245e-06 2.92968e-10 2.94623e-12
2704 1 0.000635 -0.00867182 -0.00508 -0.018792 -6.19774e-17 -2.3845e-17 2.16e-11 0 1.42216e-35
2875 1 0.000635 -0.00647211 -0.00508 -0.018792 -1.44605e-16 -2.38442e-17 2.16e-11 0 3.49075e-35
3047 1 0.000635 -0.00427241 -0.00508 -0.018792 -1.03287e-16 -2.38433e-17 2.16e-11 1.57928e-24 2.45645e-35
3220 1 0.000635 -0.0020727 -0.00508 -0.018792 -3.38813e-21 -2.38442e-17 2.16e-11 0 2.58574e-36
3393 1 0.000635 0.000127 -0.00508 -0.018792 0 -2.38442e-17 2.16e-11 0 2.58574e-36
3566 1 0.000635 0.0023267 -0.00508 -0.018792 -3.38813e-21 -2.38459e-17 2.16e-11 0 2.58574e-36
3739 1 0.000635 0.00452641 -0.00508 -0.018792 4.13081e-17 -2.38433e-17 2.16e-11 5.26426e-25 2.84431e-35
3911 1 0.000635 0.00672611 -0.00508 -0.018792 6.19859e-17 -2.38442e-17 2.16e-11 0 1.42216e-35
4082 1 0.000635 0.00892582 -0.00508 -0.018792 -8.47033e-21 -2.3845e-17 2.16e-11 0 2.58574e-36
4253 1 0.000635 0.0111255 -0.00508 -0.018792 -5.52726e-05 3.15551e-05 -1.38108e-05 1.37011e-09 1.88228e-11
4422 1 0.000635 0.0132892 -0.00507755 -0.0184991 -3.36728e-10 2.58577e-10 3.59543e-09 3.72334e-09 3.67331e-10
2365 1 0.000635 -0.0130064 -0.00380692 -0.0184207 -6.17584e-09 -1.22546e-09 -1.51256e-08 5.34952e-10 2.19263e-10
2449 1 0.000635 -0.0119714 -0.004445 -0.018792 -0.000173976 -0.000124224 7.27395e-05 4.55559e-10 1.51446e-10
2534 1 0.000635 -0.0108715 -0.00381 -0.018792 -2.25987e-07 -1.15081e-07 -6.2642e-06 3.81158e-10 4.65433e-35
2619 1 0.000635 -0.00977167 -0.004445 -0.018792 -4.93027e-09 8.53948e-09 -4.22011e-07 3.36892e-12 6.01185e-35
2705 1 0.000635 -0.00867182 -0.00381 -0.018792 -8.2623e-17 0 2.16e-11 1.05285e-24 2.06859e-35
2790 1 0.000635 -0.00757197 -0.004445 -0.018792 1.44602e-16 -5.96282e-17 2.16e-11 5.26426e-25 3.74932e-35
2876 1 0.000635 -0.00647211 -0.00381 -0.018792 -1.44605e-16 0 2.16e-11 0 3.23218e-35
2961 1 0.000635 -0.00537226 -0.004445 -0.018792 1.44604e-16 -5.9629e-17 2.16e-11 5.26426e-25 3.74932e-35
3048 1 0.000635 -0.00427241 -0.00381 -0.018792 -1.03291e-16 0 2.16e-11 0 1.68073e-35
3134 1 0.000635 -0.00317256 -0.004445 -0.018792 3.09963e-17 -5.36693e-17 2.16e-11 1.57928e-24 8.40366e-36
3221 1 0.000635 -0.0020727 -0.00381 -0.018792 -6.77626e-21 0 2.16e-11 2.10571e-24 0
3307 1 0.000635 -0.000972852 -0.004445 -0.018792 0 -4.77053e-17 2.16e-11 1.05285e-24 5.17148e-36
3394 1 0.000635 0.000127 -0.00381 -0.018792 0 0 2.16e-11 1.05285e-24 0
3480 1 0.000635 0.00122685 -0.004445 -0.018792 0 -4.77053e-17 2.16e-11 1.05285e-24 5.17148e-36
3567 1 0.000635 0.0023267 -0.00381 -0.018792 0 0 2.16e-11 2.10571e-24 0
3653 1 0.000635 0.00342656 -0.004445 -0.018792 3.09811e-17 -5.36701e-17 2.16e-11 1.05285e-24 8.40366e-36
3740 1 0.000635 0.00452641 -0.00381 -0.018792 4.13217e-17 7.70372e-34 2.16e-11 0 1.29287e-35
3826 1 0.000635 0.00562626 -0.004445 -0.018792 -1.44597e-16 -5.9629e-17 2.16e-11 5.26426e-25 3.74932e-35
3912 1 0.000635 0.00672611 -0.00381 -0.018792 8.26298e-17 0 2.16e-11 1.05285e-24 2.06859e-35
3997 1 0.000635 0.00782597 -0.004445 -0.018792 -3.38813e-21 -4.77061e-17 2.16e-11 1.05285e-24 5.17148e-36
4083 1 0.000635 0.00892582 -0.00381 -0.018792 -6.77626e-21 0 2.16e-11 1.05285e-24 0
4168 1 0.000635 0.0100257 -0.004445 -0.018792 2.44648e-08 4.23742e-08 -6.12808e-07 7.14782e-12 6.01185e-35
4254 1 0.000635 0.0111255 -0.00381 -0.018792 1.68053e-07 -4.83481e-08 -5.28053e-06 2.6852e-10 4.65433e-35
4338 1 0.000635 0.0122254 -0.004445 -0.018792 0.00017626 -0.000280309 6.13369e-05 3.0659e-09 4.67801e-10
4423 1 0.000635 0.0132873 -0.00380835 -0.0185005 6.55148e-11 -1.86024e-11 7.50485e-10 2.29754e-09 1.35345e-10
2366 1 0.000635 -0.0130075 -0.00253845 -0.0184226 -7.9893e-09 -9.15442e-10 -2.01159e-08 5.07244e-10 6.31967e-11
2450 1 0.000635 -0.0119714 -0.003175 -0.018792 3.90739e-05 7.45396e-05 -4.36957e-06 5.20329e-10 5.54361e-11
2535 1 0.000635 -0.0108715 -0.00254 -0.018792 -2.74592e-07 -2.02339e-08 -6.54236e-06 4.16437e-10 6.33506e-35
2620 1 0.000635 -0.00977167 -0.003175 -0.018792 -1.3427e-16 4.1748e-17 2.16e-11 5.26426e-25 5.81792e-35
2706 1 0.000635 -0.00867182 -0.00254 -0.018792 -7.2301e-17 -5.97417e-18 2.16e-11 0 1.61609e-35
2791 1 0.000635 -0.00757197 -0.003175 -0.018792 1.44602e-16 4.77053e-17 2.16e-11 5.26426e-25 3.55539e-35
2877 1 0.000635 -0.00647211 -0.00254 -0.018792 -1.44605e-16 -1.19365e-17 2.16e-11 0 3.23218e-35
2962 1 0.000635 -0.00537226 -0.003175 -0.018792 1.44604e-16 4.7707e-17 2.16e-11 0 3.55539e-35
3049 1 0.000635 -0.00427241 -0.00254 -0.018792 -1.03284e-16 -1.19373e-17 2.16e-11 5.26426e-25 1.93931e-35
3135 1 0.000635 -0.00317256 -0.003175 -0.018792 3.09963e-17 4.17472e-17 2.16e-11 1.05285e-24 6.46435e-36
3222 1 0.000635 -0.0020727 -0.00254 -0.018792 0 -1.43996e-20 2.16e-11 0 0
3308 1 0.000635 -0.000972852 -0.003175 -0.018792 0 3.57823e-17 2.16e-11 1.05285e-24 3.23218e-36
3395 1 0.000635 0.000127 -0.00254 -0.018792 0 -1.35525e-20 2.16e-11 0 0
3481 1 0.000635 0.00122685 -0.003175 -0.018792 0 3.57823e-17 2.16e-11 1.05285e-24 3.23218e-36
3568 1 0.000635 0.0023267 -0.00254 -0.018792 -6.77626e-21 -1.35525e-20 2.16e-11 0 0
3654 1 0.000635 0.00342656 -0.003175 -0.018792 3.09777e-17 4.17463e-17 2.16e-11 1.05285e-24 6.46435e-36
3741 1 0.000635 0.00452641 -0.00254 -0.018792 4.13115e-17 -1.19382e-17 2.16e-11 5.26426e-25 1.93931e-35
3827 1 0.000635 0.00562626 -0.003175 -0.018792 -1.44595e-16 4.77053e-17 2.16e-11 5.26426e-25 3.55539e-35
3913 1 0.000635 0.00672611 -0.00254 -0.018792 7.23095e-17 -5.97502e-18 2.16e-11 0 1.61609e-35
3998 1 0.000635 0.00782597 -0.003175 -0.018792 0 3.57823e-17 2.16e-11 1.05285e-24 3.23218e-36
4084 1 0.000635 0.00892582 -0.00254 -0.018792 -8.47033e-21 -1.27055e-20 2.16e-11 0 0
4169 1 0.000635 0.0100257 -0.003175 -0.018792 1.3427e-16 4.1748e-17 2.16e-11 5.26426e-25 5.81792e-35
4255 1 0.000635 0.0111255 -0.00254 -0.018792 1.72148e-07 -3.04644e-08 -5.24519e-06 2.64901e-10 6.33506e-35
4339 1 0.000635 0.0122254 -0.003175 -0.018792 4.44076e-05 7.21776e-06 2.00984e-05 3.38792e-10 7.10459e-12
4424 1 0.000635 0.013282 -0.00253929 -0.0184856 -7.99119e-10 -6.8093e-11 3.42615e-09 3.71978e-10 1.96934e-11
2367 1 0.000635 -0.0130073 -0.00126939 -0.0184219 3.95748e-09 -6.30266e-10 8.08073e-09 4.90862e-10 2.21639e-11
2451 1 0.000635 -0.0119714 -0.001905 -0.018792 5.96478e-06 3.09209e-05 8.49725e-06 4.87058e-10 8.75313e-12
2536 1 0.000635 -0.0108715 -0.00127 -0.018792 -2.7536e-07 -1.07628e-08 -6.52187e-06 4.13802e-10 6.33506e-35
2621 1 0.000635 -0.00977167 -0.001905 -0.018792 -1.44592e-16 -1.19229e-17 2.16e-11 5.26426e-25 6.39971e-35
2707 1 0.000635 -0.00867182 -0.00127 -0.018792 -7.2301e-17 5.96909e-18 2.16e-11 5.26426e-25 1.61609e-35
2792 1 0.000635 -0.00757197 -0.001905 -0.018792 1.44605e-16 -1.19229e-17 2.16e-11 0 3.29682e-35
2878 1 0.000635 -0.00647211 -0.00127 -0.018792 -1.44605e-16 1.19331e-17 2.16e-11 0 3.23218e-35
2963 1 0.000635 -0.00537226 -0.001905 -0.018792 1.44602e-16 -1.19246e-17 2.16e-11 0 3.29682e-35
3050 1 0.000635 -0.00427241 -0.00127 -0.018792 -1.13613e-16 5.96993e-18 2.16e-11 0 2.13324e-35
3136 1 0.000635 -0.00317256 -0.001905 -0.018792 4.13081e-17 -1.19229e-17 2.16e-11 0 5.81792e-36
3223 1 0.000635 -0.0020727 -0.00127 -0.018792 0 7.6233e-21 2.16e-11 0 0
3309 1 0.000635 -0.000972852 -0.001905 -0.018792 0 -1.19229e-17 2.16e-11 0 6.46435e-37
3396 1 0.000635 0.000127 -0.00127 -0.018792 0 6.77626e-21 2.16e-11 0 0
3482 1 0.000635 0.00122685 -0.001905 -0.018792 0 -1.19229e-17 2.16e-11 0 6.46435e-37
3569 1 0.000635 0.0023267 -0.00127 -0.018792 -6.77626e-21 6.77626e-21 2.16e-11 0 0
3655 1 0.000635 0.00342656 -0.001905 -0.018792 2.06608e-17 -1.19229e-17 2.16e-11 0 1.93931e-36
3742 1 0.000635 0.00452641 -0.00127 -0.018792 4.13149e-17 1.19331e-17 2.16e-11 5.26426e-25 1.93931e-35
3828 1 0.000635 0.00562626 -0.001905 -0.018792 -1.44599e-16 -1.19229e-17 2.16e-11 0 3.29682e-35
3914 1 0.000635 0.00672611 -0.00127 -0.018792 7.23078e-17 5.96909e-18 2.16e-11 5.26426e-25 1.61609e-35
3999 1 0.000635 0.00782597 -0.001905 -0.018792 -6.77626e-21 -1.19229e-17 2.16e-11 5.26426e-25 6.46435e-37
4085 1 0.000635 0.00892582 -0.00127 -0.018792 -6.77626e-21 6.77626e-21 2.16e-11 0 0
4170 1 0.000635 0.0100257 -0.001905 -0.018792 1.44599e-16 -1.19229e-17 2.16e-11 0 6.39971e-35
4256 1 0.000635 0.0111255 -0.00127 -0.018792 1.8536e-07 -2.83151e-10 -5.36155e-06 2.76982e-10 6.33506e-35
4340 1 0.000635 0.0122254 -0.001905 -0.018792 5.19889e-06 8.58543e-06 1.00496e-05 3.3324e-10 7.9133e-13
4425 1 0.000635 0.0132827 -0.00126973 -0.0184886 -4.93245e-09 -2.40056e-10 1.43379e-08 3.63795e-10 4.53748e-12
2368 1 0.000635 -0.0130074 -2.06358e-09 -0.018422 2.49017e-10 -5.61526e-10 -5.97839e-11 4.882e-10 1.23966e-11
2452 1 0.000635 -0.0119714 -0.000635 -0.018792 -2.87587e-06 8.03187e-06 1.18628e-05 4.76831e-10 6.45166e-13
2622 1 0.000635 -0.00977167 -0.000635 -0.018792 -1.44599e-16 -8.47033e-21 2.16e-11 0 6.33506e-35
2793 1 0.000635 -0.00757197 -0.000635 -0.018792 1.44604e-16 -1.19339e-17 2.16e-11 5.26426e-25 3.23218e-35
2964 1 0.000635 -0.00537226 -0.000635 -0.018792 1.44604e-16 -1.19365e-17 2.16e-11 0 3.23218e-35
3137 1 0.000635 -0.00317256 -0.000635 -0.018792 4.13183e-17 -8.47033e-21 2.16e-11 0 5.17148e-36
3310 1 0.000635 -0.000972852 -0.000635 -0.018792 0 -8.47033e-21 2.16e-11 0 0
3483 1 0.000635 0.00122685 -0.000635 -0.018792 0 -8.47033e-21 2.16e-11 0 0
3656 1 0.000635 0.00342656 -0.000635 -0.018792 3.09811e-17 -5.97078e-18 2.16e-11 5.26426e-25 3.23218e-36
3829 1 0.000635 0.00562626 -0.000635 -0.018792 -1.44597e-16 -1.19339e-17 2.16e-11 5.26426e-25 3.23218e-35
4000 1 0.000635 0.00782597 -0.000635 -0.018792 0 -8.47033e-21 2.16e-11 0 0
4171 1 0.000635 0.0100257 -0.000635 -0.018792 1.44599e-16 -8.47033e-21 2.16e-11 0 6.33506e-35
4341 1 0.000635 0.0122254 -0.000635 -0.018792 4.03732e-07 3.32013e-06 8.20089e-06 3.45325e-10 1.04447e-13
4426 1 0.000635 0.0132832 1.22417e-08 -0.0184905 1.49779e-09 -1.1447e-10 -4.17106e-09 3.67167e-10 2.06397e-12
2453 1 0.000635 -0.0119714 0.000635 -0.018792 -2.86015e-06 -8.15467e-06 1.18588e-05 4.76984e-10 6.62791e-13
2537 1 0.000635 -0.0108715 0 -0.018792 -2.77196e-07 -1.42984e-10 -6.52989e-06 4.14874e-10 6.33506e-35
2623 1 0.000635 -0.00977167 0.000635 -0.018792 -1.44599e-16 -3.38813e-21 2.16e-11 0 6.33506e-35
2708 1 0.000635 -0.00867182 0 -0.018792 -8.26247e-17 5.92923e-21 2.16e-11 0 2.06859e-35
2794 1 0.000635 -0.00757197 0.000635 -0.018792 1.44602e-16 -3.38813e-21 2.16e-11 0 3.23218e-35
2879 1 0.000635 -0.00647211 0 -0.018792 -1.44605e-16 5.0822e-21 2.16e-11 0 3.23218e-35
2965 1 0.000635 -0.00537226 0.000635 -0.018792 1.44602e-16 -3.38813e-21 2.16e-11 0 3.23218e-35
3051 1 0.000635 -0.00427241 0 -0.018792 -1.03282e-16 5.92923e-21 2.16e-11 0 1.68073e-35
3138 1 0.000635 -0.00317256 0.000635 -0.018792 4.13149e-17 -3.38813e-21 2.16e-11 0 5.17148e-36
3224 1 0.000635 -0.0020727 0 -0.018792 0 6.77626e-21 2.16e-11 0 0
3311 1 0.000635 -0.000972852 0.000635 -0.018792 0 -3.38813e-21 2.16e-11 0 0
3397 1 0.000635 0.000127 0 -0.018792 0 6.77626e-21 2.16e-11 0 0
3484 1 0.000635 0.00122685 0.000635 -0.018792 0 -3.38813e-21 2.16e-11 0 0
3570 1 0.000635 0.0023267 0 -0.018792 -3.38813e-21 5.0822e-21 2.16e-11 5.26426e-25 0
3657 1 0.000635 0.00342656 0.000635 -0.018792 2.06574e-17 -3.38813e-21 2.16e-11 0 1.29287e-36
3743 1 0.000635 0.00452641 0 -0.018792 4.13132e-17 5.92923e-21 2.16e-11 0 1.29287e-35
3830 1 0.000635 0.00562626 0.000635 -0.018792 -1.44595e-16 -3.38813e-21 2.16e-11 0 3.23218e-35
3915 1 0.000635 0.00672611 0 -0.018792 8.26315e-17 5.92923e-21 2.16e-11 0 2.06859e-35
4001 1 0.000635 0.00782597 0.000635 -0.018792 0 -3.38813e-21 2.16e-11 0 0
4086 1 0.000635 0.00892582 0 -0.018792 -6.77626e-21 6.77626e-21 2.16e-11 0 0
4172 1 0.000635 0.0100257 0.000635 -0.018792 1.44599e-16 -3.38813e-21 2.16e-11 0 6.33506e-35
4257 1 0.000635 0.0111255 0 -0.018792 1.85446e-07 3.36832e-10 -5.34724e-06 2.75473e-10 6.33506e-35
4342 1 0.000635 0.0122254 0.000635 -0.018792 3.88936e-07 -2.657e-06 8.18864e-06 3.44955e-10 6.82076e-14
2369 1 0.000635 -0.0130073 0.00126939 -0.0184218 1.19268e-09 -5.39327e-10 1.70563e-09 4.91206e-10 2.22692e-11
2454 1 0.000635 -0.0119714 0.001905 -0.018792 5.96931e-06 -3.10568e-05 8.49589e-06 4.87636e-10 8.8298e-12
2538 1 0.000635 -0.0108715 0.00127 -0.018792 -2.75537e-07 1.05096e-08 -6.524e-06 4.1408e-10 6.33506e-35
2624 1 0.000635 -0.00977167 0.001905 -0.018792 -1.44595e-16 1.19221e-17 2.16e-11 0 6.39971e-35
2709 1 0.000635 -0.00867182 0.00127 -0.018792 -8.26264e-17 0 2.16e-11 0 2.06859e-35
2795 1 0.000635 -0.00757197 0.001905 -0.018792 1.44604e-16 1.19221e-17 2.16e-11 0 3.29682e-35
2880 1 0.000635 -0.00647211 0.00127 -0.018792 -1.44605e-16 0 2.16e-11 0 3.23218e-35
2966 1 0.000635 -0.00537226 0.001905 -0.018792 1.44604e-16 1.19238e-17 2.16e-11 0 3.29682e-35
3052 1 0.000635 -0.00427241 0.00127 -0.018792 -1.0328e-16 0 2.16e-11 0 1.68073e-35
3139 1 0.000635 -0.00317256 0.001905 -0.018792 4.13115e-17 1.19229e-17 2.16e-11 0 5.81792e-36
3225 1 0.000635 -0.0020727 0.00127 -0.018792 0 0 2.16e-11 0 0
3312 1 0.000635 -0.000972852 0.001905 -0.018792 0 1.19212e-17 2.16e-11 0 6.46435e-37
3398 1 0.000635 0.000127 0.00127 -0.018792 0 0 2.16e-11 0 0
3485 1 0.000635 0.00122685 0.001905 -0.018792 0 1.19212e-17 2.16e-11 0 6.46435e-37
3571 1 0.000635 0.0023267 0.00127 -0.018792 -6.77626e-21 0 2.16e-11 0 0
3658 1 0.000635 0.00342656 0.001905 -0.018792 2.06591e-17 1.19221e-17 2.16e-11 0 1.93931e-36
3744 1 0.000635 0.00452641 0.00127 -0.018792 4.13115e-17 0 2.16e-11 0 1.29287e-35
3831 1 0.000635 0.00562626 0.001905 -0.018792 -1.44597e-16 1.19221e-17 2.16e-11 0 3.29682e-35
3916 1 0.000635 0.00672611 0.00127 -0.018792 8.26331e-17 0 2.16e-11 0 2.06859e-35
4002 1 0.000635 0.00782597 0.001905 -0.018792 -3.38813e-21 1.19221e-17 2.16e-11 0 6.46435e-37
4087 1 0.000635 0.00892582 0.00127 -0.018792 -6.77626e-21 0 2.16e-11 0 0
4173 1 0.000635 0.0100257 0.001905 -0.018792 1.44599e-16 1.19212e-17 2.16e-11 0 6.39971e-35
4258 1 0.000635 0.0111255 0.00127 -0.018792 1.84763e-07 9.96423e-10 -5.35265e-06 2.76039e-10 6.33506e-35
4343 1 0.000635 0.0122254 0.001905 -0.018792 5.13309e-06 -7.79817e-06 9.99456e-06 3.32297e-10 6.70851e-13
4427 1 0.000635 0.0132828 0.00126976 -0.0184891 2.09192e-10 -1.04799e-10 -8.15003e-10 3.63266e-10 4.36789e-12
2370 1 0.000635 -0.0130075 0.00253845 -0.0184224 -4.85731e-09 -3.45622e-10 -1.24196e-08 5.07901e-10 6.36782e-11
2455 1 0.000635 -0.0119714 0.003175 -0.018792 3.93086e-05 -7.49249e-05 -4.47332e-06 5.21242e-10 5.60238e-11
2539 1 0.000635 -0.0108715 0.00254 -0.018792 -2.75052e-07 1.98475e-08 -6.54781e-06 4.17153e-10 6.33506e-35
2625 1 0.000635 -0.00977167 0.003175 -0.018792 -1.3427e-16 -4.1748e-17 2.16e-11 5.26426e-25 5.81792e-35
2710 1 0.000635 -0.00867182 0.00254 -0.018792 -7.2301e-17 5.97417e-18 2.16e-11 0 1.61609e-35
2796 1 0.000635 -0.00757197 0.003175 -0.018792 1.44602e-16 -4.77053e-17 2.16e-11 5.26426e-25 3.55539e-35
2881 1 0.000635 -0.00647211 0.00254 -0.018792 -1.44605e-16 1.19365e-17 2.16e-11 0 3.23218e-35
2967 1 0.000635 -0.00537226 0.003175 -0.018792 1.44604e-16 -4.7707e-17 2.16e-11 0 3.55539e-35
3053 1 0.000635 -0.00427241 0.00254 -0.018792 -1.03284e-16 1.19373e-17 2.16e-11 5.26426e-25 1.93931e-35
3140 1 0.000635 -0.00317256 0.003175 -0.018792 3.09963e-17 -4.17472e-17 2.16e-11 1.05285e-24 6.46435e-36
3226 1 0.000635 -0.0020727 0.00254 -0.018792 0 1.43996e-20 2.16e-11 0 0
3313 1 0.000635 -0.000972852 0.003175 -0.018792 0 -3.57823e-17 2.16e-11 1.05285e-24 3.23218e-36
3399 1 0.000635 0.000127 0.00254 -0.018792 0 1.35525e-20 2.16e-11 0 0
3486 1 0.000635 0.00122685 0.003175 -0.018792 0 -3.57823e-17 2.16e-11 1.05285e-24 3.23218e-36
3572 1 0.000635 0.0023267 0.00254 -0.018792 -6.77626e-21 1.35525e-20 2.16e-11 0 0
3659 1 0.000635 0.00342656 0.003175 -0.018792 3.09777e-17 -4.17463e-17 2.16e-11 1.05285e-24 6.46435e-36
3745 1 0.000635 0.00452641 0.00254 -0.018792 4.13115e-17 1.19382e-17 2.16e-11 5.26426e-25 1.93931e-35
3832 1 0.000635 0.00562626 0.003175 -0.018792 -1.44595e-16 -4.77053e-17 2.16e-11 5.26426e-25 3.55539e-35
3917 1 0.000635 0.00672611 0.00254 -0.018792 7.23095e-17 5.97502e-18 2.16e-11 0 1.61609e-35
4003 1 0.000635 0.00782597 0.003175 -0.018792 0 -3.57823e-17 2.16e-11 1.05285e-24 3.23218e-36
4088 1 0.000635 0.00892582 0.00254 -0.018792 -8.47033e-21 1.27055e-20 2.16e-11 0 0
4174 1 0.000635 0.0100257 0.003175 -0.018792 1.3427e-16 -4.1748e-17 2.16e-11 5.26426e-25 5.81792e-35
4259 1 0.000635 0.0111255 0.00254 -0.018792 1.71113e-07 3.08742e-08 -5.22838e-06 2.63195e-10 6.33506e-35
4344 1 0.000635 0.0122254 0.003175 -0.018792 4.39381e-05 -6.3805e-06 1.9844e-05 3.37392e-10 6.85565e-12
4428 1 0.000635 0.0132823 0.00253932 -0.0184866 1.1797e-09 -2.45415e-11 -3.8976e-09 3.70972e-10 1.87216e-11
2371 1 0.000635 -0.0130062 0.0038069 -0.0184202 -9.17973e-10 -3.64354e-10 -3.14068e-09 5.36226e-10 2.21832e-10
2456 1 0.000635 -0.0119714 0.004445 -0.018792 -0.000174003 0.000123867 7.28665e-05 4.56532e-10 1.51264e-10
2540 1 0.000635 -0.0108715 0.00381 -0.018792 -2.26394e-07 1.15114e-07 -6.2708e-06 3.81969e-10 4.65433e-35
2626 1 0.000635 -0.00977167 0.004445 -0.018792 -4.91524e-09 -8.51344e-09 -4.22508e-07 3.37685e-12 6.01185e-35
2711 1 0.000635 -0.00867182 0.00381 -0.018792 -8.2623e-17 0 2.16e-11 1.05285e-24 2.06859e-35
2797 1 0.000635 -0.00757197 0.004445 -0.018792 1.44602e-16 5.96282e-17 2.16e-11 5.26426e-25 3.74932e-35
2882 1 0.000635 -0.00647211 0.00381 -0.018792 -1.44605e-16 0 2.16e-11 0 3.23218e-35