ITEM: TIMESTEP
1540000
ITEM: NUMBER OF ATOMS
6793
ITEM: BOX BOUNDS ff ff ff
-8.9999999999999997e-02 8.9999999999999997e-02
-8.9999999999999997e-02 8.9999999999999997e-02
-4.0000000000000001e-02 4.0000000000000001e-02
ITEM: ATOMS id type radius x y z fx fy fz c_bendingE c_stretchingE
3385 1 0.000635 0.000118261 -0.0151872 -0.0161507 7.04149e-10 -1.98767e-08 -5.64528e-08 2.90581e-09 7.64319e-11
3213 1 0.000635 -0.00207118 -0.0139524 -0.0164289 1.93393e-09 -2.6527e-09 -1.51233e-08 4.75477e-09 3.83795e-10
3299 1 0.000635 -0.000974385 -0.0145863 -0.0163838 -3.8037e-10 -1.14277e-09 -3.88261e-08 4.4305e-09 1.22161e-10
3386 1 0.000635 0.000125848 -0.0139633 -0.0164944 -1.05679e-09 -3.13793e-09 -1.98102e-08 3.26595e-09 4.32565e-11
3472 1 0.000635 0.00121002 -0.0145414 -0.0161734 -6.60315e-09 3.70147e-09 -6.50969e-09 1.5262e-09 1.61896e-10
3559 1 0.000635 0.00229133 -0.0138773 -0.0161514 -3.96813e-09 -2.93025e-10 -1.56302e-08 6.21164e-10 2.13633e-10
3041 1 0.000635 -0.00426534 -0.0126836 -0.0164366 1.07524e-08 -2.27319e-09 7.34031e-09 2.97224e-09 1.47572e-10
3127 1 0.000635 -0.00316737 -0.0133173 -0.016435 7.66046e-09 -7.09372e-10 1.45147e-08 3.55958e-09 3.88913e-10
3214 1 0.000635 -0.0020727 -0.0127 -0.016632 -9.89705e-05 9.13166e-06 -3.02722e-06 4.08111e-09 8.15806e-11
3300 1 0.000635 -0.000973309 -0.0133352 -0.0166023 2.45949e-10 -1.05194e-10 -2.34374e-08 3.15218e-09 4.2073e-11
3387 1 0.000635 0.000127 -0.0127 -0.016632 -4.89082e-05 -6.03183e-05 2.80358e-06 3.34622e-10 1.81016e-11
3473 1 0.000635 0.0012258 -0.0133336 -0.0165718 9.03585e-10 -6.27043e-09 -4.5886e-08 4.15499e-10 1.44476e-10
3560 1 0.000635 0.0023267 -0.0127 -0.016632 7.76313e-05 -0.000237699 0.000113222 5.4201e-10 2.61271e-10
3646 1 0.000635 0.00340434 -0.0132866 -0.0162911 1.43797e-08 -5.06103e-08 -1.2687e-07 5.24424e-10 2.97162e-10
3733 1 0.000635 0.00451261 -0.0126723 -0.0163715 -3.0472e-08 7.84676e-08 2.5683e-07 3.44174e-10 4.65612e-11
3905 1 0.000635 0.00669477 -0.0126349 -0.0160942 8.62165e-09 -1.68893e-08 -4.65433e-08 1.43426e-10 5.88392e-12
2870 1 0.000635 -0.0064629 -0.0114158 -0.0164414 -3.64122e-09 -4.66862e-10 -1.45077e-08 2.31467e-09 5.75493e-11
2955 1 0.000635 -0.0053639 -0.0120497 -0.0164386 4.41663e-09 -8.0347e-09 -3.64826e-08 2.58031e-09 6.59145e-11
3042 1 0.000635 -0.00427241 -0.01143 -0.016632 -1.04006e-06 6.51776e-05 -1.72999e-05 2.29816e-09 2.08911e-11
3128 1 0.000635 -0.00317256 -0.012065 -0.016632 -4.29062e-05 9.88675e-05 -2.05144e-05 2.90375e-09 8.17029e-11
3215 1 0.000635 -0.0020727 -0.01143 -0.016632 3.35507e-08 -8.13534e-08 -3.51524e-06 1.17709e-10 5.17148e-36
3301 1 0.000635 -0.000972852 -0.012065 -0.016632 3.94226e-08 -3.10194e-05 -2.68495e-06 1.16942e-10 4.33859e-12
3388 1 0.000635 0.000127 -0.01143 -0.016632 1.01559e-08 0 -1.21249e-06 2.78667e-11 5.17148e-36
3474 1 0.000635 0.00122685 -0.012065 -0.016632 -2.54612e-08 -2.64979e-06 -5.08878e-06 3.54836e-10 2.40596e-14
3561 1 0.000635 0.0023267 -0.01143 -0.016632 2.36121e-07 -1.30481e-07 -6.52631e-06 4.54379e-10 5.17148e-36
3647 1 0.000635 0.00342656 -0.012065 -0.016632 6.15833e-05 4.58233e-05 -9.08078e-07 4.06819e-10 5.35153e-11
3734 1 0.000635 0.00452641 -0.01143 -0.016632 2.56861e-05 1.91213e-05 3.13651e-06 2.74445e-10 9.27558e-12
3820 1 0.000635 0.00561676 -0.0120468 -0.0164198 -8.56496e-09 2.52509e-08 9.86168e-08 2.57113e-10 9.1195e-12
3906 1 0.000635 0.00671938 -0.0114175 -0.0164554 -3.34781e-09 1.11046e-08 5.26038e-08 2.10295e-10 2.24335e-12
3991 1 0.000635 0.00780291 -0.0120205 -0.0161807 6.8346e-09 -1.15717e-08 -4.82913e-08 2.27452e-09 8.26791e-11
2785 1 0.000635 -0.00756204 -0.0107816 -0.0164434 1.58919e-08 1.75847e-08 9.77765e-08 2.13072e-09 8.23674e-11
2956 1 0.000635 -0.00537226 -0.010795 -0.016632 3.00185e-05 3.90011e-05 -1.48177e-05 1.90448e-09 8.75867e-12
3129 1 0.000635 -0.00317256 -0.010795 -0.016632 -5.93778e-09 -6.90601e-08 -3.44588e-06 1.13043e-10 6.46435e-36
3302 1 0.000635 -0.000972852 -0.010795 -0.016632 4.02819e-09 0 -2.62111e-07 1.299e-12 5.17148e-36
3475 1 0.000635 0.00122685 -0.010795 -0.016632 9.25026e-09 0 -5.30523e-07 5.32387e-12 5.17148e-36
3648 1 0.000635 0.00342656 -0.010795 -0.016632 1.47527e-07 -8.42697e-08 -4.88016e-06 2.41918e-10 1.0343e-35
3821 1 0.000635 0.00562626 -0.010795 -0.016632 1.33791e-05 1.12937e-05 3.07711e-06 1.93973e-10 2.73308e-12
3992 1 0.000635 0.00782164 -0.0107871 -0.0164881 8.39362e-09 -1.56409e-08 -8.90398e-08 1.11118e-09 5.53371e-11
4077 1 0.000635 0.00890609 -0.0113917 -0.0162237 8.82051e-09 -1.07994e-08 -5.88447e-08 2.16343e-09 1.37065e-11
2615 1 0.000635 -0.00975883 -0.00951086 -0.0164311 -7.78106e-09 -3.21518e-08 -9.7338e-08 2.09468e-09 2.26488e-10
2700 1 0.000635 -0.00866094 -0.0101468 -0.0164416 1.99288e-08 1.14569e-09 4.86587e-08 2.03549e-09 1.26866e-10
2786 1 0.000635 -0.00757197 -0.009525 -0.016632 7.59683e-05 3.65567e-06 -1.1452e-05 1.31483e-09 4.3452e-11
2871 1 0.000635 -0.00647211 -0.01016 -0.016632 5.43465e-05 1.90027e-05 -1.28282e-05 1.59684e-09 1.96863e-11
2957 1 0.000635 -0.00537226 -0.009525 -0.016632 -4.43984e-08 -5.08179e-08 -3.37091e-06 1.0817e-10 3.74932e-35
3043 1 0.000635 -0.00427241 -0.01016 -0.016632 -2.84257e-08 -5.88773e-08 -3.40698e-06 1.10502e-10 2.71503e-35
3130 1 0.000635 -0.00317256 -0.009525 -0.016632 2.0671e-17 0 2.16e-11 1.05285e-24 6.46435e-36
3216 1 0.000635 -0.0020727 -0.01016 -0.016632 -6.77626e-21 0 2.16e-11 0 5.17148e-36
3303 1 0.000635 -0.000972852 -0.009525 -0.016632 0 0 2.16e-11 0 5.17148e-36
3389 1 0.000635 0.000127 -0.01016 -0.016632 0 0 2.16e-11 0 5.17148e-36
3476 1 0.000635 0.00122685 -0.009525 -0.016632 0 0 2.16e-11 0 5.17148e-36
3562 1 0.000635 0.0023267 -0.01016 -0.016632 0 0 2.16e-11 0 5.17148e-36
3649 1 0.000635 0.00342656 -0.009525 -0.016632 4.13115e-17 0 2.16e-11 0 1.0343e-35
3735 1 0.000635 0.00452641 -0.01016 -0.016632 8.88994e-08 -5.68983e-08 -3.8555e-06 1.47318e-10 3.10289e-35
3822 1 0.000635 0.00562626 -0.009525 -0.016632 6.31804e-08 -3.57959e-08 -3.13978e-06 9.73235e-11 3.74932e-35
3907 1 0.000635 0.00672611 -0.01016 -0.016632 2.28921e-05 -5.76438e-06 4.87987e-06 1.51882e-10 3.44348e-12
3993 1 0.000635 0.00782597 -0.009525 -0.016632 1.83139e-05 -2.54457e-05 3.3258e-06 4.15031e-10 3.01001e-12
4078 1 0.000635 0.00892279 -0.0101519 -0.0164983 2.86474e-09 -2.56329e-09 -2.39507e-08 2.16816e-09 1.18118e-10
4164 1 0.000635 0.0100044 -0.00949707 -0.0163569 -4.87401e-09 4.14799e-09 1.50971e-08 1.95097e-09 2.0785e-10
2446 1 0.000635 -0.0119577 -0.00824639 -0.0163834 5.36887e-09 -8.77908e-09 -1.1306e-08 3.33343e-09 2.8763e-11
2530 1 0.000635 -0.010857 -0.00887734 -0.0164126 9.56986e-09 5.04248e-09 7.61794e-09 2.44336e-09 9.45649e-11
2616 1 0.000635 -0.00977167 -0.008255 -0.016632 -3.00654e-05 -9.55529e-05 1.95489e-05 7.38992e-10 5.24168e-11
2701 1 0.000635 -0.00867182 -0.00889 -0.016632 0.000101497 -8.36464e-06 -1.16044e-05 1.0276e-09 8.4259e-11
2787 1 0.000635 -0.00757197 -0.008255 -0.016632 -6.17281e-08 -4.45517e-08 -3.43701e-06 1.12605e-10 4.0079e-35
2872 1 0.000635 -0.00647211 -0.00889 -0.016632 -5.48933e-08 -4.57173e-08 -3.36229e-06 1.07608e-10 3.74932e-35
2958 1 0.000635 -0.00537226 -0.008255 -0.016632 1.44607e-16 -7.15799e-17 2.16e-11 5.26426e-25 4.0079e-35
3044 1 0.000635 -0.00427241 -0.00889 -0.016632 -1.03289e-16 -4.76841e-17 2.16e-11 1.05285e-24 2.71503e-35
3131 1 0.000635 -0.00317256 -0.008255 -0.016632 3.09912e-17 -7.75431e-17 2.16e-11 5.26426e-25 1.87466e-35
3217 1 0.000635 -0.0020727 -0.00889 -0.016632 -3.38813e-21 -4.76866e-17 2.16e-11 0 5.17148e-36
3304 1 0.000635 -0.000972852 -0.008255 -0.016632 0 -7.15833e-17 2.16e-11 0 1.0343e-35
3390 1 0.000635 0.000127 -0.00889 -0.016632 0 -4.76866e-17 2.16e-11 0 5.17148e-36
3477 1 0.000635 0.00122685 -0.008255 -0.016632 0 -7.15833e-17 2.16e-11 0 1.0343e-35
3563 1 0.000635 0.0023267 -0.00889 -0.016632 0 -4.76858e-17 2.16e-11 0 5.17148e-36
3650 1 0.000635 0.00342656 -0.008255 -0.016632 4.13098e-17 -7.15825e-17 2.16e-11 0 1.0343e-35
3736 1 0.000635 0.00452641 -0.00889 -0.016632 4.13115e-17 -4.76841e-17 2.16e-11 0 3.10289e-35
3823 1 0.000635 0.00562626 -0.008255 -0.016632 -1.446e-16 -7.15791e-17 2.16e-11 0 4.0079e-35
3908 1 0.000635 0.00672611 -0.00889 -0.016632 3.5026e-08 -4.2167e-08 -2.73636e-06 7.25143e-11 1.68073e-35
3994 1 0.000635 0.00782597 -0.008255 -0.016632 -2.18359e-08 -1.03825e-07 -3.69825e-06 1.43727e-10 1.0343e-35
4079 1 0.000635 0.00892582 -0.00889 -0.016632 -9.63344e-05 0.000112043 -3.27536e-05 1.07116e-09 7.48913e-11
4165 1 0.000635 0.0100257 -0.008255 -0.016632 0.000369387 7.34558e-05 0.000102116 1.52608e-09 8.56036e-10
2362 1 0.000635 -0.0130554 -0.00761155 -0.0163145 7.68753e-10 -1.60016e-08 -1.73472e-08 2.72608e-09 1.06771e-10
2447 1 0.000635 -0.011968 -0.00698405 -0.0165194 1.04794e-08 -2.13981e-09 7.03154e-08 4.25349e-10 1.02907e-10
2531 1 0.000635 -0.010871 -0.00761969 -0.0165869 -4.09916e-09 -5.39942e-09 -8.00281e-08 5.11219e-10 1.87321e-11
2617 1 0.000635 -0.00977167 -0.006985 -0.016632 -7.24783e-06 -4.12567e-06 -2.49861e-06 1.03216e-10 3.06569e-13
2702 1 0.000635 -0.00867182 -0.00762 -0.016632 -7.96077e-08 -2.82019e-08 -3.61257e-06 1.24973e-10 2.9736e-35
2788 1 0.000635 -0.00757197 -0.006985 -0.016632 1.44605e-16 -2.38958e-17 2.16e-11 0 4.0079e-35
2873 1 0.000635 -0.00647211 -0.00762 -0.016632 -1.44609e-16 2.38967e-17 2.16e-11 0 4.0079e-35
2959 1 0.000635 -0.00537226 -0.006985 -0.016632 1.44605e-16 -2.38958e-17 2.16e-11 0 4.0079e-35
3045 1 0.000635 -0.00427241 -0.00762 -0.016632 -1.13623e-16 2.98573e-17 2.16e-11 0 2.90896e-35
3132 1 0.000635 -0.00317256 -0.006985 -0.016632 3.09912e-17 -2.98573e-17 2.16e-11 0 1.87466e-35
3218 1 0.000635 -0.0020727 -0.00762 -0.016632 -1.69407e-21 2.38958e-17 2.16e-11 0 1.0343e-35
3305 1 0.000635 -0.000972852 -0.006985 -0.016632 0 -2.38967e-17 2.16e-11 0 1.0343e-35
3391 1 0.000635 0.000127 -0.00762 -0.016632 0 2.38967e-17 2.16e-11 0 1.0343e-35
3478 1 0.000635 0.00122685 -0.006985 -0.016632 0 -2.38967e-17 2.16e-11 0 1.0343e-35
3564 1 0.000635 0.0023267 -0.00762 -0.016632 0 2.38967e-17 2.16e-11 0 1.0343e-35
3651 1 0.000635 0.00342656 -0.006985 -0.016632 4.13081e-17 -2.38967e-17 2.16e-11 0 1.0343e-35
3737 1 0.000635 0.00452641 -0.00762 -0.016632 4.13217e-17 2.38958e-17 2.16e-11 0 2.06859e-35
3824 1 0.000635 0.00562626 -0.006985 -0.016632 -1.44599e-16 -2.3895e-17 2.16e-11 0 4.0079e-35
3909 1 0.000635 0.00672611 -0.00762 -0.016632 6.19757e-17 2.38958e-17 2.16e-11 0 2.9736e-35
3995 1 0.000635 0.00782597 -0.006985 -0.016632 -6.77626e-21 -2.38967e-17 2.16e-11 0 1.0343e-35
4080 1 0.000635 0.00892582 -0.00762 -0.016632 -8.80434e-08 -1.98807e-07 -6.69687e-06 6.42563e-10 1.0343e-35
4166 1 0.000635 0.0100257 -0.006985 -0.016632 -0.000108772 6.21281e-05 -2.33015e-05 1.17105e-09 7.35274e-11
4251 1 0.000635 0.0111165 -0.00761014 -0.0164697 -7.8792e-09 4.81148e-09 3.81543e-08 1.87778e-09 1.3308e-09
4336 1 0.000635 0.0121529 -0.00692866 -0.0161714 -5.9345e-09 2.74214e-09 1.63281e-08 2.27942e-09 1.10902e-09
2363 1 0.000635 -0.0130455 -0.00634256 -0.0163226 -3.66876e-09 -1.19381e-08 -1.32756e-08 5.09165e-10 1.17105e-10
2448 1 0.000635 -0.0119705 -0.00571563 -0.0165847 1.48561e-09 -5.23091e-09 -3.20447e-09 3.35909e-10 1.16375e-10
2532 1 0.000635 -0.0108715 -0.00635 -0.016632 -6.69903e-05 -7.81427e-05 8.06306e-06 1.42987e-10 4.07687e-11
2618 1 0.000635 -0.00977167 -0.005715 -0.016632 -3.68589e-09 6.38415e-09 -9.91728e-07 1.86247e-11 6.85221e-35
2703 1 0.000635 -0.00867182 -0.00635 -0.016632 -6.95054e-11 1.20387e-10 -3.97518e-07 2.98747e-12 2.9736e-35
2789 1 0.000635 -0.00757197 -0.005715 -0.016632 1.44602e-16 4.76832e-17 2.16e-11 0 3.74932e-35
2874 1 0.000635 -0.00647211 -0.00635 -0.016632 -1.44609e-16 7.15816e-17 2.16e-11 0 4.0079e-35
2960 1 0.000635 -0.00537226 -0.005715 -0.016632 1.44604e-16 4.76841e-17 2.16e-11 5.26426e-25 3.74932e-35
3046 1 0.000635 -0.00427241 -0.00635 -0.016632 -1.13621e-16 7.75431e-17 2.16e-11 0 2.90896e-35
3133 1 0.000635 -0.00317256 -0.005715 -0.016632 2.0671e-17 4.76858e-17 2.16e-11 5.26426e-25 6.46435e-36
3219 1 0.000635 -0.0020727 -0.00635 -0.016632 -5.0822e-21 7.15842e-17 2.16e-11 0 1.0343e-35
3306 1 0.000635 -0.000972852 -0.005715 -0.016632 0 4.76866e-17 2.16e-11 0 5.17148e-36
3392 1 0.000635 0.000127 -0.00635 -0.016632 0 7.1585e-17 2.16e-11 0 1.0343e-35
3479 1 0.000635 0.00122685 -0.005715 -0.016632 0 4.76866e-17 2.16e-11 0 5.17148e-36
3565 1 0.000635 0.0023267 -0.00635 -0.016632 0 7.15842e-17 2.16e-11 0 1.0343e-35
3652 1 0.000635 0.00342656 -0.005715 -0.016632 4.13098e-17 4.76858e-17 2.16e-11 0 1.0343e-35
3738 1 0.000635 0.00452641 -0.00635 -0.016632 4.13183e-17 7.15816e-17 2.16e-11 0 2.06859e-35
3825 1 0.000635 0.00562626 -0.005715 -0.016632 -1.44597e-16 4.76841e-17 2.16e-11 0 3.74932e-35
3910 1 0.000635 0.00672611 -0.00635 -0.016632 6.19774e-17 7.15825e-17 2.16e-11 0 2.9736e-35
3996 1 0.000635 0.00782597 -0.005715 -0.016632 -6.77626e-21 4.76849e-17 2.16e-11 0 5.17148e-36
4081 1 0.000635 0.00892582 -0.00635 -0.016632 -1.77547e-08 -3.0752e-08 -1.43404e-06 3.90481e-11 1.0343e-35
4167 1 0.000635 0.0100257 -0.005715 -0.016632 -5.55034e-08 -9.61347e-08 -4.07505e-06 3.25202e-10 6.85221e-35
4252 1 0.000635 0.0111255 -0.00635 -0.016632 -0.000366654 -3.55273e-05 -8.85301e-05 1.7002e-09 4.44774e-10
4337 1 0.000635 0.0122205 -0.00571775 -0.0165652 -4.15593e-09 2.96042e-09 2.85421e-08 2.47255e-09 1.0627e-09
2364 1 0.000635 -0.0130289 -0.00507406 -0.0163075 2.75204e-08 -1.15366e-08 7.27907e-08 4.17086e-10 2.64162e-10
2533 1 0.000635 -0.0108715 -0.00508 -0.016632 -1.92783e-05 -1.12858e-05 -3.76865e-06 2.65063e-10 2.21026e-12
2704 1 0.000635 -0.00867182 -0.00508 -0.016632 -6.19774e-17 -2.3845e-17 2.16e-11 0 1.42216e-35
2875 1 0.000635 -0.00647211 -0.00508 -0.016632 -1.44605e-16 -2.38442e-17 2.16e-11 0 3.49075e-35
3047 1 0.000635 -0.00427241 -0.00508 -0.016632 -1.03287e-16 -2.38433e-17 2.16e-11 1.57928e-24 2.45645e-35
3220 1 0.000635 -0.0020727 -0.00508 -0.016632 -3.38813e-21 -2.38442e-17 2.16e-11 0 2.58574e-36
3393 1 0.000635 0.000127 -0.00508 -0.016632 0 -2.38442e-17 2.16e-11 0 2.58574e-36
3566 1 0.000635 0.0023267 -0.00508 -0.016632 -3.38813e-21 -2.38459e-17 2.16e-11 0 2.58574e-36
3739 1 0.000635 0.00452641 -0.00508 -0.016632 4.13081e-17 -2.38433e-17 2.16e-11 5.26426e-25 2.84431e-35
3911 1 0.000635 0.00672611 -0.00508 -0.016632 6.19859e-17 -2.38442e-17 2.16e-11 0 1.42216e-35
4082 1 0.000635 0.00892582 -0.00508 -0.016632 -8.47033e-21 -2.3845e-17 2.16e-11 0 2.58574e-36
4253 1 0.000635 0.0111255 -0.00508 -0.016632 -5.28753e-05 3.02231e-05 -1.27688e-05 1.17008e-09 1.72062e-11
4422 1 0.000635 0.0132934 -0.00507763 -0.0163567 -4.41271e-09 2.38442e-09 1.63141e-08 3.17708e-09 2.85042e-10
2365 1 0.000635 -0.0130121 -0.00380716 -0.0162771 -1.27497e-08 -6.52005e-09 -2.6135e-08 4.88845e-10 1.77943e-10
2449 1 0.000635 -0.0119714 -0.004445 -0.016632 -0.000167983 -0.000118322 6.67359e-05 4.16182e-10 1.38323e-10
2534 1 0.000635 -0.0108715 -0.00381 -0.016632 -2.0396e-07 -1.08817e-07 -5.96481e-06 3.44819e-10 4.65433e-35
2619 1 0.000635 -0.00977167 -0.004445 -0.016632 -4.41605e-09 7.64882e-09 -4.1664e-07 3.28337e-12 6.01185e-35
2705 1 0.000635 -0.00867182 -0.00381 -0.016632 -8.2623e-17 0 2.16e-11 1.05285e-24 2.06859e-35
2790 1 0.000635 -0.00757197 -0.004445 -0.016632 1.44602e-16 -5.96282e-17 2.16e-11 5.26426e-25 3.74932e-35
2876 1 0.000635 -0.00647211 -0.00381 -0.016632 -1.44605e-16 0 2.16e-11 0 3.23218e-35
2961 1 0.000635 -0.00537226 -0.004445 -0.016632 1.44604e-16 -5.9629e-17 2.16e-11 5.26426e-25 3.74932e-35
3048 1 0.000635 -0.00427241 -0.00381 -0.016632 -1.03291e-16 0 2.16e-11 0 1.68073e-35
3134 1 0.000635 -0.00317256 -0.004445 -0.016632 3.09963e-17 -5.36693e-17 2.16e-11 1.57928e-24 8.40366e-36
3221 1 0.000635 -0.0020727 -0.00381 -0.016632 -6.77626e-21 0 2.16e-11 2.10571e-24 0
3307 1 0.000635 -0.000972852 -0.004445 -0.016632 0 -4.77053e-17 2.16e-11 1.05285e-24 5.17148e-36
3394 1 0.000635 0.000127 -0.00381 -0.016632 0 0 2.16e-11 1.05285e-24 0
3480 1 0.000635 0.00122685 -0.004445 -0.016632 0 -4.77053e-17 2.16e-11 1.05285e-24 5.17148e-36
3567 1 0.000635 0.0023267 -0.00381 -0.016632 0 0 2.16e-11 2.10571e-24 0
3653 1 0.000635 0.00342656 -0.004445 -0.016632 3.09811e-17 -5.36701e-17 2.16e-11 1.05285e-24 8.40366e-36
3740 1 0.000635 0.00452641 -0.00381 -0.016632 4.13217e-17 7.70372e-34 2.16e-11 0 1.29287e-35
3826 1 0.000635 0.00562626 -0.004445 -0.016632 -1.44597e-16 -5.9629e-17 2.16e-11 5.26426e-25 3.74932e-35
3912 1 0.000635 0.00672611 -0.00381 -0.016632 8.26298e-17 0 2.16e-11 1.05285e-24 2.06859e-35
3997 1 0.000635 0.00782597 -0.004445 -0.016632 -3.38813e-21 -4.77061e-17 2.16e-11 1.05285e-24 5.17148e-36
4083 1 0.000635 0.00892582 -0.00381 -0.016632 -6.77626e-21 0 2.16e-11 1.05285e-24 0
4168 1 0.000635 0.0100257 -0.004445 -0.016632 2.13517e-08 3.69822e-08 -5.89676e-07 6.6106e-12 6.01185e-35
4254 1 0.000635 0.0111255 -0.00381 -0.016632 1.45552e-07 -4.0784e-08 -4.93669e-06 2.34064e-10 4.65433e-35
4338 1 0.000635 0.0122254 -0.004445 -0.016632 0.000162407 -0.00023469 5.16408e-05 2.62842e-09 3.66166e-10
4423 1 0.000635 0.0132936 -0.00380839 -0.0163642 1.49659e-08 2.94449e-09 -5.38871e-08 1.93758e-09 1.36698e-10
2366 1 0.000635 -0.0130133 -0.00253849 -0.0162793 -3.61591e-08 -4.29395e-09 -8.49871e-08 4.63666e-10 5.33493e-11
2450 1 0.000635 -0.0119714 -0.003175 -0.016632 3.55792e-05 6.97649e-05 -2.94671e-06 4.72116e-10 4.82737e-11
2535 1 0.000635 -0.0108715 -0.00254 -0.016632 -2.51115e-07 -2.05423e-08 -6.26171e-06 3.80504e-10 6.33506e-35
2620 1 0.000635 -0.00977167 -0.003175 -0.016632 -1.3427e-16 4.1748e-17 2.16e-11 5.26426e-25 5.81792e-35
2706 1 0.000635 -0.00867182 -0.00254 -0.016632 -7.2301e-17 -5.97417e-18 2.16e-11 0 1.61609e-35
2791 1 0.000635 -0.00757197 -0.003175 -0.016632 1.44602e-16 4.77053e-17 2.16e-11 5.26426e-25 3.55539e-35
2877 1 0.000635 -0.00647211 -0.00254 -0.016632 -1.44605e-16 -1.19365e-17 2.16e-11 0 3.23218e-35
2962 1 0.000635 -0.00537226 -0.003175 -0.016632 1.44604e-16 4.7707e-17 2.16e-11 0 3.55539e-35
3049 1 0.000635 -0.00427241 -0.00254 -0.016632 -1.03284e-16 -1.19373e-17 2.16e-11 5.26426e-25 1.93931e-35
3135 1 0.000635 -0.00317256 -0.003175 -0.016632 3.09963e-17 4.17472e-17 2.16e-11 1.05285e-24 6.46435e-36
3222 1 0.000635 -0.0020727 -0.00254 -0.016632 0 -1.43996e-20 2.16e-11 0 0
3308 1 0.000635 -0.000972852 -0.003175 -0.016632 0 3.57823e-17 2.16e-11 1.05285e-24 3.23218e-36
3395 1 0.000635 0.000127 -0.00254 -0.016632 0 -1.35525e-20 2.16e-11 0 0
3481 1 0.000635 0.00122685 -0.003175 -0.016632 0 3.57823e-17 2.16e-11 1.05285e-24 3.23218e-36
3568 1 0.000635 0.0023267 -0.00254 -0.016632 -6.77626e-21 -1.35525e-20 2.16e-11 0 0
3654 1 0.000635 0.00342656 -0.003175 -0.016632 3.09777e-17 4.17463e-17 2.16e-11 1.05285e-24 6.46435e-36
3741 1 0.000635 0.00452641 -0.00254 -0.016632 4.13115e-17 -1.19382e-17 2.16e-11 5.26426e-25 1.93931e-35
3827 1 0.000635 0.00562626 -0.003175 -0.016632 -1.44595e-16 4.77053e-17 2.16e-11 5.26426e-25 3.55539e-35
3913 1 0.000635 0.00672611 -0.00254 -0.016632 7.23095e-17 -5.97502e-18 2.16e-11 0 1.61609e-35
3998 1 0.000635 0.00782597 -0.003175 -0.016632 0 3.57823e-17 2.16e-11 1.05285e-24 3.23218e-36
4084 1 0.000635 0.00892582 -0.00254 -0.016632 -8.47033e-21 -1.27055e-20 2.16e-11 0 0
4169 1 0.000635 0.0100257 -0.003175 -0.016632 1.3427e-16 4.1748e-17 2.16e-11 5.26426e-25 5.81792e-35
4255 1 0.000635 0.0111255 -0.00254 -0.016632 1.45968e-07 -3.24657e-08 -4.85653e-06 2.26565e-10 6.33506e-35
4339 1 0.000635 0.0122254 -0.003175 -0.016632 4.84252e-05 6.93837e-06 1.95485e-05 2.88548e-10 8.1867e-12
4424 1 0.000635 0.013288 -0.00253931 -0.016347 1.27738e-08 4.04321e-09 -3.90846e-08 3.1668e-10 2.00573e-11
2367 1 0.000635 -0.0130127 -0.00126935 -0.0162772 4.16044e-08 -2.34841e-09 1.02664e-07 4.49398e-10 2.20095e-11
2451 1 0.000635 -0.0119714 -0.001905 -0.016632 4.84867e-06 3.22864e-05 8.46939e-06 4.48252e-10 9.5035e-12
2536 1 0.000635 -0.0108715 -0.00127 -0.016632 -2.52076e-07 -1.40235e-08 -6.25234e-06 3.79374e-10 6.33506e-35
2621 1 0.000635 -0.00977167 -0.001905 -0.016632 -1.44592e-16 -1.19229e-17 2.16e-11 5.26426e-25 6.39971e-35
2707 1 0.000635 -0.00867182 -0.00127 -0.016632 -7.2301e-17 5.96909e-18 2.16e-11 5.26426e-25 1.61609e-35
2792 1 0.000635 -0.00757197 -0.001905 -0.016632 1.44605e-16 -1.19229e-17 2.16e-11 0 3.29682e-35
2878 1 0.000635 -0.00647211 -0.00127 -0.016632 -1.44605e-16 1.19331e-17 2.16e-11 0 3.23218e-35
2963 1 0.000635 -0.00537226 -0.001905 -0.016632 1.44602e-16 -1.19246e-17 2.16e-11 0 3.29682e-35
3050 1 0.000635 -0.00427241 -0.00127 -0.016632 -1.13613e-16 5.96993e-18 2.16e-11 0 2.13324e-35
3136 1 0.000635 -0.00317256 -0.001905 -0.016632 4.13081e-17 -1.19229e-17 2.16e-11 0 5.81792e-36
3223 1 0.000635 -0.0020727 -0.00127 -0.016632 0 7.6233e-21 2.16e-11 0 0
3309 1 0.000635 -0.000972852 -0.001905 -0.016632 0 -1.19229e-17 2.16e-11 0 6.46435e-37
3396 1 0.000635 0.000127 -0.00127 -0.016632 0 6.77626e-21 2.16e-11 0 0
3482 1 0.000635 0.00122685 -0.001905 -0.016632 0 -1.19229e-17 2.16e-11 0 6.46435e-37
3569 1 0.000635 0.0023267 -0.00127 -0.016632 -6.77626e-21 6.77626e-21 2.16e-11 0 0
3655 1 0.000635 0.00342656 -0.001905 -0.016632 2.06608e-17 -1.19229e-17 2.16e-11 0 1.93931e-36
3742 1 0.000635 0.00452641 -0.00127 -0.016632 4.13149e-17 1.19331e-17 2.16e-11 5.26426e-25 1.93931e-35
3828 1 0.000635 0.00562626 -0.001905 -0.016632 -1.44599e-16 -1.19229e-17 2.16e-11 0 3.29682e-35
3914 1 0.000635 0.00672611 -0.00127 -0.016632 7.23078e-17 5.96909e-18 2.16e-11 5.26426e-25 1.61609e-35
3999 1 0.000635 0.00782597 -0.001905 -0.016632 -6.77626e-21 -1.19229e-17 2.16e-11 5.26426e-25 6.46435e-37
4085 1 0.000635 0.00892582 -0.00127 -0.016632 -6.77626e-21 6.77626e-21 2.16e-11 0 0
4170 1 0.000635 0.0100257 -0.001905 -0.016632 1.44599e-16 -1.19229e-17 2.16e-11 0 6.39971e-35
4256 1 0.000635 0.0111255 -0.00127 -0.016632 1.59933e-07 -2.09177e-09 -4.99548e-06 2.39804e-10 6.33506e-35
4340 1 0.000635 0.0122254 -0.001905 -0.016632 8.28009e-06 6.9716e-06 1.03043e-05 2.83227e-10 7.07815e-13
4425 1 0.000635 0.0132883 -0.00126975 -0.016349 -5.93547e-09 1.86081e-09 2.54389e-08 3.07661e-10 4.47303e-12
2368 1 0.000635 -0.0130122 1.14604e-15 -0.0162759 -6.28839e-08 -6.19855e-14 -1.53291e-07 4.4501e-10 1.39942e-11
2452 1 0.000635 -0.0119714 -0.000635 -0.016632 -3.01057e-06 8.50969e-06 1.14775e-05 4.36513e-10 7.17234e-13
2622 1 0.000635 -0.00977167 -0.000635 -0.016632 -1.44599e-16 -8.47033e-21 2.16e-11 0 6.33506e-35
2793 1 0.000635 -0.00757197 -0.000635 -0.016632 1.44604e-16 -1.19339e-17 2.16e-11 5.26426e-25 3.23218e-35
2964 1 0.000635 -0.00537226 -0.000635 -0.016632 1.44604e-16 -1.19365e-17 2.16e-11 0 3.23218e-35
3137 1 0.000635 -0.00317256 -0.000635 -0.016632 4.13183e-17 -8.47033e-21 2.16e-11 0 5.17148e-36
3310 1 0.000635 -0.000972852 -0.000635 -0.016632 0 -8.47033e-21 2.16e-11 0 0
3483 1 0.000635 0.00122685 -0.000635 -0.016632 0 -8.47033e-21 2.16e-11 0 0
3656 1 0.000635 0.00342656 -0.000635 -0.016632 3.09811e-17 -5.97078e-18 2.16e-11 5.26426e-25 3.23218e-36
3829 1 0.000635 0.00562626 -0.000635 -0.016632 -1.44597e-16 -1.19339e-17 2.16e-11 5.26426e-25 3.23218e-35
4000 1 0.000635 0.00782597 -0.000635 -0.016632 0 -8.47033e-21 2.16e-11 0 0
4171 1 0.000635 0.0100257 -0.000635 -0.016632 1.44599e-16 -8.47033e-21 2.16e-11 0 6.33506e-35
4341 1 0.000635 0.0122254 -0.000635 -0.016632 1.22878e-06 2.71149e-06 7.9708e-06 2.94714e-10 7.82445e-14
4426 1 0.000635 0.0132887 6.22813e-16 -0.0163505 1.10334e-08 9.15714e-14 -2.55088e-08 3.10988e-10 2.04802e-12
2453 1 0.000635 -0.0119714 0.000635 -0.016632 -3.01057e-06 -8.50969e-06 1.14775e-05 4.36513e-10 7.17234e-13
2537 1 0.000635 -0.0108715 0 -0.016632 -2.53135e-07 4.40381e-17 -6.25868e-06 3.80164e-10 6.33506e-35
2623 1 0.000635 -0.00977167 0.000635 -0.016632 -1.44599e-16 -3.38813e-21 2.16e-11 0 6.33506e-35
2708 1 0.000635 -0.00867182 0 -0.016632 -8.26247e-17 5.92923e-21 2.16e-11 0 2.06859e-35
2794 1 0.000635 -0.00757197 0.000635 -0.016632 1.44602e-16 -3.38813e-21 2.16e-11 0 3.23218e-35
2879 1 0.000635 -0.00647211 0 -0.016632 -1.44605e-16 5.0822e-21 2.16e-11 0 3.23218e-35
2965 1 0.000635 -0.00537226 0.000635 -0.016632 1.44602e-16 -3.38813e-21 2.16e-11 0 3.23218e-35
3051 1 0.000635 -0.00427241 0 -0.016632 -1.03282e-16 5.92923e-21 2.16e-11 0 1.68073e-35
3138 1 0.000635 -0.00317256 0.000635 -0.016632 4.13149e-17 -3.38813e-21 2.16e-11 0 5.17148e-36
3224 1 0.000635 -0.0020727 0 -0.016632 0 6.77626e-21 2.16e-11 0 0
3311 1 0.000635 -0.000972852 0.000635 -0.016632 0 -3.38813e-21 2.16e-11 0 0
3397 1 0.000635 0.000127 0 -0.016632 0 6.77626e-21 2.16e-11 0 0
3484 1 0.000635 0.00122685 0.000635 -0.016632 0 -3.38813e-21 2.16e-11 0 0
3570 1 0.000635 0.0023267 0 -0.016632 -3.38813e-21 5.0822e-21 2.16e-11 5.26426e-25 0
3657 1 0.000635 0.00342656 0.000635 -0.016632 2.06574e-17 -3.38813e-21 2.16e-11 0 1.29287e-36
3743 1 0.000635 0.00452641 0 -0.016632 4.13132e-17 5.92923e-21 2.16e-11 0 1.29287e-35
3830 1 0.000635 0.00562626 0.000635 -0.016632 -1.44595e-16 -3.38813e-21 2.16e-11 0 3.23218e-35
3915 1 0.000635 0.00672611 0 -0.016632 8.26315e-17 5.92923e-21 2.16e-11 0 2.06859e-35
4001 1 0.000635 0.00782597 0.000635 -0.016632 0 -3.38813e-21 2.16e-11 0 0
4086 1 0.000635 0.00892582 0 -0.016632 -6.77626e-21 6.77626e-21 2.16e-11 0 0
4172 1 0.000635 0.0100257 0.000635 -0.016632 1.44599e-16 -3.38813e-21 2.16e-11 0 6.33506e-35
4257 1 0.000635 0.0111255 0 -0.016632 1.60859e-07 -2.15883e-17 -4.99207e-06 2.39475e-10 6.33506e-35
4342 1 0.000635 0.0122254 0.000635 -0.016632 1.22878e-06 -2.71149e-06 7.9708e-06 2.94714e-10 7.82445e-14
2369 1 0.000635 -0.0130127 0.00126935 -0.0162772 4.16044e-08 2.34849e-09 1.02664e-07 4.49398e-10 2.20095e-11
2454 1 0.000635 -0.0119714 0.001905 -0.016632 4.84867e-06 -3.22864e-05 8.46939e-06 4.48252e-10 9.5035e-12
2538 1 0.000635 -0.0108715 0.00127 -0.016632 -2.52076e-07 1.40235e-08 -6.25234e-06 3.79374e-10 6.33506e-35
2624 1 0.000635 -0.00977167 0.001905 -0.016632 -1.44595e-16 1.19221e-17 2.16e-11 0 6.39971e-35
2709 1 0.000635 -0.00867182 0.00127 -0.016632 -8.26264e-17 0 2.16e-11 0 2.06859e-35
2795 1 0.000635 -0.00757197 0.001905 -0.016632 1.44604e-16 1.19221e-17 2.16e-11 0 3.29682e-35
2880 1 0.000635 -0.00647211 0.00127 -0.016632 -1.44605e-16 0 2.16e-11 0 3.23218e-35
2966 1 0.000635 -0.00537226 0.001905 -0.016632 1.44604e-16 1.19238e-17 2.16e-11 0 3.29682e-35
3052 1 0.000635 -0.00427241 0.00127 -0.016632 -1.0328e-16 0 2.16e-11 0 1.68073e-35
3139 1 0.000635 -0.00317256 0.001905 -0.016632 4.13115e-17 1.19229e-17 2.16e-11 0 5.81792e-36
3225 1 0.000635 -0.0020727 0.00127 -0.016632 0 0 2.16e-11 0 0
3312 1 0.000635 -0.000972852 0.001905 -0.016632 0 1.19212e-17 2.16e-11 0 6.46435e-37
3398 1 0.000635 0.000127 0.00127 -0.016632 0 0 2.16e-11 0 0
3485 1 0.000635 0.00122685 0.001905 -0.016632 0 1.19212e-17 2.16e-11 0 6.46435e-37
3571 1 0.000635 0.0023267 0.00127 -0.016632 -6.77626e-21 0 2.16e-11 0 0
3658 1 0.000635 0.00342656 0.001905 -0.016632 2.06591e-17 1.19221e-17 2.16e-11 0 1.93931e-36
3744 1 0.000635 0.00452641 0.00127 -0.016632 4.13115e-17 0 2.16e-11 0 1.29287e-35
3831 1 0.000635 0.00562626 0.001905 -0.016632 -1.44597e-16 1.19221e-17 2.16e-11 0 3.29682e-35
3916 1 0.000635 0.00672611 0.00127 -0.016632 8.26331e-17 0 2.16e-11 0 2.06859e-35
4002 1 0.000635 0.00782597 0.001905 -0.016632 -3.38813e-21 1.19221e-17 2.16e-11 0 6.46435e-37
4087 1 0.000635 0.00892582 0.00127 -0.016632 -6.77626e-21 0 2.16e-11 0 0
4173 1 0.000635 0.0100257 0.001905 -0.016632 1.44599e-16 1.19212e-17 2.16e-11 0 6.39971e-35
4258 1 0.000635 0.0111255 0.00127 -0.016632 1.59933e-07 2.09177e-09 -4.99548e-06 2.39804e-10 6.33506e-35
4343 1 0.000635 0.0122254 0.001905 -0.016632 8.28009e-06 -6.9716e-06 1.03043e-05 2.83227e-10 7.07815e-13
4427 1 0.000635 0.0132883 0.00126975 -0.016349 -5.93546e-09 -1.86098e-09 2.54389e-08 3.07661e-10 4.47303e-12
2370 1 0.000635 -0.0130133 0.00253849 -0.0162793 -3.61591e-08 4.29406e-09 -8.49871e-08 4.63666e-10 5.33493e-11
2455 1 0.000635 -0.0119714 0.003175 -0.016632 3.55792e-05 -6.97649e-05 -2.94671e-06 4.72116e-10 4.82737e-11
2539 1 0.000635 -0.0108715 0.00254 -0.016632 -2.51115e-07 2.05423e-08 -6.26171e-06 3.80504e-10 6.33506e-35
2625 1 0.000635 -0.00977167 0.003175 -0.016632 -1.3427e-16 -4.1748e-17 2.16e-11 5.26426e-25 5.81792e-35
2710 1 0.000635 -0.00867182 0.00254 -0.016632 -7.2301e-17 5.97417e-18 2.16e-11 0 1.61609e-35
2796 1 0.000635 -0.00757197 0.003175 -0.016632 1.44602e-16 -4.77053e-17 2.16e-11 5.26426e-25 3.55539e-35
2881 1 0.000635 -0.00647211 0.00254 -0.016632 -1.44605e-16 1.19365e-17 2.16e-11 0 3.23218e-35
2967 1 0.000635 -0.00537226 0.003175 -0.016632 1.44604e-16 -4.7707e-17 2.16e-11 0 3.55539e-35
3053 1 0.000635 -0.00427241 0.00254 -0.016632 -1.03284e-16 1.19373e-17 2.16e-11 5.26426e-25 1.93931e-35
3140 1 0.000635 -0.00317256 0.003175 -0.016632 3.09963e-17 -4.17472e-17 2.16e-11 1.05285e-24 6.46435e-36
3226 1 0.000635 -0.0020727 0.00254 -0.016632 0 1.43996e-20 2.16e-11 0 0
3313 1 0.000635 -0.000972852 0.003175 -0.016632 0 -3.57823e-17 2.16e-11 1.05285e-24 3.23218e-36
3399 1 0.000635 0.000127 0.00254 -0.016632 0 1.35525e-20 2.16e-11 0 0
3486 1 0.000635 0.00122685 0.003175 -0.016632 0 -3.57823e-17 2.16e-11 1.05285e-24 3.23218e-36
3572 1 0.000635 0.0023267 0.00254 -0.016632 -6.77626e-21 1.35525e-20 2.16e-11 0 0
3659 1 0.000635 0.00342656 0.003175 -0.016632 3.09777e-17 -4.17463e-17 2.16e-11 1.05285e-24 6.46435e-36
3745 1 0.000635 0.00452641 0.00254 -0.016632 4.13115e-17 1.19382e-17 2.16e-11 5.26426e-25 1.93931e-35
3832 1 0.000635 0.00562626 0.003175 -0.016632 -1.44595e-16 -4.77053e-17 2.16e-11 5.26426e-25 3.55539e-35
3917 1 0.000635 0.00672611 0.00254 -0.016632 7.23095e-17 5.97502e-18 2.16e-11 0 1.61609e-35
4003 1 0.000635 0.00782597 0.003175 -0.016632 0 -3.57823e-17 2.16e-11 1.05285e-24 3.23218e-36
4088 1 0.000635 0.00892582 0.00254 -0.016632 -8.47033e-21 1.27055e-20 2.16e-11 0 0
4174 1 0.000635 0.0100257 0.003175 -0.016632 1.3427e-16 -4.1748e-17 2.16e-11 5.26426e-25 5.81792e-35
4259 1 0.000635 0.0111255 0.00254 -0.016632 1.45968e-07 3.24657e-08 -4.85653e-06 2.26565e-10 6.33506e-35
4344 1 0.000635 0.0122254 0.003175 -0.016632 4.84252e-05 -6.93837e-06 1.95485e-05 2.88548e-10 8.1867e-12
4428 1 0.000635 0.013288 0.00253931 -0.016347 1.27738e-08 -4.04312e-09 -3.90846e-08 3.1668e-10 2.00573e-11