ITEM: TIMESTEP
500000
ITEM: NUMBER OF ATOMS
6793
ITEM: BOX BOUNDS ff ff ff
-8.9999999999999997e-02 8.9999999999999997e-02
-8.9999999999999997e-02 8.9999999999999997e-02
-4.0000000000000001e-02 4.0000000000000001e-02
ITEM: ATOMS id type radius x y z fx fy fz c_bendingE c_stretchingE
3470 1 0.000635 0.00121079 -0.017101 -0.00477559 3.39163e-10 -3.43461e-11 -8.32133e-10 2.79639e-10 4.76185e-11
3384 1 0.000635 0.000117044 -0.0164651 -0.00487728 3.85411e-10 -1.08597e-11 -3.49898e-10 4.72224e-10 3.35038e-11
3557 1 0.000635 0.00231256 -0.0164725 -0.0048319 1.39257e-10 1.70036e-10 2.19856e-10 7.44717e-11 5.08246e-11
3298 1 0.000635 -0.000952436 -0.0157878 -0.00479015 -7.94995e-10 -1.56513e-09 -4.48638e-09 7.47644e-10 7.45536e-11
3385 1 0.000635 0.000124693 -0.0152282 -0.00516389 3.93943e-11 -2.9148e-10 -1.03247e-09 3.77306e-10 2.93317e-11
3471 1 0.000635 0.00122041 -0.0158549 -0.00502729 2.86161e-10 -6.41802e-10 -3.81936e-09 3.93936e-10 5.88303e-11
3558 1 0.000635 0.00231883 -0.0152183 -0.00504045 4.04771e-10 -8.4949e-10 -5.47408e-09 3.92555e-11 6.78222e-11
3644 1 0.000635 0.00341065 -0.0158354 -0.00483963 1.06858e-10 9.93598e-11 -4.62056e-10 7.29264e-12 3.34027e-11
3731 1 0.000635 0.00451039 -0.0152018 -0.00486424 4.04382e-10 -4.81094e-10 -3.2739e-09 2.79764e-12 2.1804e-11
3817 1 0.000635 0.00560475 -0.0158243 -0.00469541 4.72797e-10 -1.05984e-09 -6.45925e-09 4.9894e-12 1.76828e-11
3903 1 0.000635 0.00670718 -0.0151981 -0.00476178 2.03703e-10 3.21946e-10 1.16082e-09 3.51922e-11 2.35751e-11
3040 1 0.000635 -0.00422516 -0.0138825 -0.00479571 -1.84827e-09 -3.68678e-09 -9.5491e-09 2.86888e-10 1.13912e-11
3126 1 0.000635 -0.00311462 -0.0144959 -0.00474222 5.76395e-10 1.44522e-09 1.37053e-09 5.55431e-10 2.56752e-11
3213 1 0.000635 -0.00206983 -0.0139569 -0.00522477 -2.03775e-10 -4.47112e-10 -2.71244e-09 5.65239e-10 1.16643e-10
3299 1 0.000635 -0.000972789 -0.0145937 -0.00521888 -1.48657e-10 -6.41759e-10 -2.7814e-09 5.57087e-10 7.1521e-11
3386 1 0.000635 0.000126959 -0.0139685 -0.00532886 5.43839e-11 1.21471e-10 2.85689e-09 4.40335e-10 1.42476e-11
3472 1 0.000635 0.00122504 -0.0145977 -0.00521679 6.08313e-10 -1.60813e-09 -1.02573e-08 1.96554e-10 4.99427e-11
3559 1 0.000635 0.00232375 -0.013961 -0.00523048 2.327e-10 -1.98045e-10 -3.66471e-10 6.03589e-11 1.28446e-10
3645 1 0.000635 0.00341689 -0.0145814 -0.00504658 1.0795e-09 -1.96971e-09 -1.2186e-08 9.89258e-12 4.18201e-11
3732 1 0.000635 0.0045171 -0.013949 -0.00507648 2.59397e-10 -2.2783e-11 5.57245e-11 7.93643e-12 2.54124e-11
3818 1 0.000635 0.00561215 -0.0145732 -0.00491737 -5.96281e-11 1.41855e-09 7.92759e-09 6.107e-12 1.66455e-11
3904 1 0.000635 0.00671442 -0.0139462 -0.00497967 5.53334e-10 -6.31981e-10 -4.44402e-09 4.10436e-11 2.15163e-11
3989 1 0.000635 0.00780862 -0.0145685 -0.0048092 8.0507e-10 -1.2954e-09 -7.93187e-09 2.22203e-10 3.49445e-11
4075 1 0.000635 0.00889888 -0.013921 -0.00475214 -2.89231e-10 1.60495e-10 8.30389e-10 2.73656e-10 3.37235e-11
2869 1 0.000635 -0.0064334 -0.0126294 -0.00485148 -1.22956e-09 -2.50444e-09 -7.61932e-09 2.28433e-10 2.39109e-12
2954 1 0.000635 -0.00533027 -0.0132577 -0.00482688 1.47819e-09 3.12002e-09 5.60345e-09 2.4514e-10 3.18294e-12
3041 1 0.000635 -0.00426598 -0.0126864 -0.00521953 -5.51511e-11 -3.91531e-10 -2.05534e-09 3.52264e-10 3.87179e-11
3127 1 0.000635 -0.00316704 -0.0133207 -0.00521881 -2.63838e-10 -3.61922e-10 -2.28136e-09 4.15247e-10 1.06684e-10
3214 1 0.000635 -0.0020727 -0.0127 -0.0054 -5.54483e-05 2.49252e-05 1.47596e-06 4.81051e-10 2.91665e-11
3300 1 0.000635 -0.000972949 -0.0133347 -0.00538088 -4.14898e-12 -1.76871e-10 -6.88193e-10 3.48628e-10 1.58495e-11
3387 1 0.000635 0.000127 -0.0127 -0.0054 1.01891e-05 -3.82503e-05 1.88932e-06 6.08724e-11 4.7589e-12
3473 1 0.000635 0.0012267 -0.0133342 -0.00535397 -1.85435e-10 7.70483e-10 1.2153e-08 5.13999e-11 2.02997e-11
3560 1 0.000635 0.0023267 -0.0127 -0.0054 3.7695e-05 -0.000183153 3.44383e-05 8.28517e-11 1.09296e-10
3646 1 0.000635 0.00342234 -0.0133258 -0.00524378 -1.87087e-10 6.63201e-10 4.84602e-09 7.51663e-11 6.49528e-11
3733 1 0.000635 0.00452307 -0.0126934 -0.00526912 -2.93013e-10 1.04051e-09 8.19926e-09 5.73879e-11 1.03645e-11
3819 1 0.000635 0.00561877 -0.0133195 -0.00512288 1.65264e-10 4.61343e-10 2.98805e-09 1.0612e-11 9.76187e-12
3905 1 0.000635 0.00672041 -0.0126898 -0.00517022 4.31582e-10 -2.02493e-10 -1.98542e-09 4.28054e-11 1.45492e-11
3990 1 0.000635 0.00781564 -0.0133157 -0.00502307 6.79383e-10 -7.91743e-10 -5.86644e-09 1.80119e-10 3.43553e-11
4076 1 0.000635 0.00890789 -0.0126708 -0.00496926 -7.75753e-10 8.83152e-10 3.10048e-09 3.08085e-10 3.4634e-11
2784 1 0.000635 -0.00753578 -0.0119999 -0.00487495 1.8671e-10 3.55008e-10 5.15842e-10 2.29053e-10 7.11557e-12
2870 1 0.000635 -0.00646575 -0.0114193 -0.00523557 -1.8247e-10 -3.91726e-10 -1.84133e-09 2.86782e-10 9.08168e-12
2955 1 0.000635 -0.00536565 -0.0120526 -0.00522562 -5.75074e-10 -8.2564e-10 -5.18178e-09 3.09079e-10 1.45788e-11
3042 1 0.000635 -0.00427241 -0.01143 -0.0054 -6.84392e-06 3.5203e-05 -2.31327e-06 2.50119e-10 7.34735e-12
3128 1 0.000635 -0.00317256 -0.012065 -0.0054 -2.58032e-05 5.55597e-05 -4.33429e-06 3.09682e-10 2.6727e-11
3215 1 0.000635 -0.0020727 -0.01143 -0.0054 1.24864e-08 -6.55888e-08 -3.13755e-06 9.36191e-11 5.17148e-36
3301 1 0.000635 -0.000972852 -0.012065 -0.0054 3.63369e-08 6.11507e-06 -3.02086e-06 8.24092e-11 1.75328e-13
3388 1 0.000635 0.000127 -0.01143 -0.0054 3.64096e-10 0 -6.27114e-07 7.43827e-12 5.17148e-36
3474 1 0.000635 0.00122685 -0.012065 -0.0054 -1.46514e-08 -3.46337e-06 -1.41375e-06 5.18855e-11 5.26861e-14
3561 1 0.000635 0.0023267 -0.01143 -0.0054 8.22328e-09 -3.08524e-08 -2.64601e-06 6.75305e-11 5.17148e-36
3647 1 0.000635 0.00342656 -0.012065 -0.0054 2.70853e-05 -3.92889e-05 1.03571e-05 6.72346e-11 7.17535e-12
3734 1 0.000635 0.00452641 -0.01143 -0.0054 1.18417e-05 -1.60754e-05 5.59008e-06 4.79966e-11 1.26895e-12
3820 1 0.000635 0.00562385 -0.0120608 -0.00529391 -8.21734e-11 6.09931e-10 5.45909e-09 4.25211e-11 3.841e-12
3906 1 0.000635 0.00672448 -0.0114278 -0.00531774 3.05296e-10 -4.55176e-10 -4.14659e-09 5.49607e-11 8.35705e-12
3991 1 0.000635 0.00782138 -0.0120577 -0.00520529 1.02709e-09 -1.55145e-09 -1.2738e-08 2.61567e-10 2.88423e-11
4077 1 0.000635 0.00891772 -0.0114173 -0.00516849 -5.69055e-10 7.54026e-10 5.32032e-09 2.57721e-10 1.22422e-11
4162 1 0.000635 0.00995258 -0.0119967 -0.00471424 4.30617e-09 -1.38173e-09 -7.9632e-09 3.591e-10 6.19758e-11
2614 1 0.000635 -0.00973974 -0.0107409 -0.00492585 -1.23487e-09 -3.1496e-09 -8.81408e-09 2.7374e-10 4.72628e-11
2699 1 0.000635 -0.00863781 -0.0113701 -0.00489916 2.49338e-09 4.61288e-09 1.23435e-08 2.44547e-10 2.00321e-11
2785 1 0.000635 -0.00756603 -0.0107861 -0.00524805 3.87986e-10 5.44449e-10 1.49903e-09 2.76857e-10 1.37465e-11
2956 1 0.000635 -0.00537226 -0.010795 -0.0054 8.48474e-06 2.27765e-05 -1.60726e-06 2.24459e-10 1.96597e-12
3129 1 0.000635 -0.00317256 -0.010795 -0.0054 -1.59963e-08 -5.66479e-08 -3.13734e-06 9.363e-11 6.46435e-36
3302 1 0.000635 -0.000972852 -0.010795 -0.0054 8.52208e-10 -1.69407e-21 -1.68579e-07 5.37228e-13 5.17148e-36
3475 1 0.000635 0.00122685 -0.010795 -0.0054 1.38197e-09 0 -4.05955e-07 3.11572e-12 5.17148e-36
3648 1 0.000635 0.00342656 -0.010795 -0.0054 2.64526e-08 -1.85665e-08 -2.31275e-06 5.25856e-11 1.0343e-35
3821 1 0.000635 0.00562626 -0.010795 -0.0054 6.11162e-06 -1.66818e-05 4.0435e-06 3.41653e-11 1.02628e-12
3992 1 0.000635 0.00782493 -0.0107939 -0.00533844 -2.79738e-10 4.85107e-10 5.91956e-09 1.75042e-10 2.02247e-11
4163 1 0.000635 0.00999453 -0.0107634 -0.00500981 -1.14218e-09 1.33074e-09 3.94255e-09 2.78147e-10 3.58366e-11
2445 1 0.000635 -0.0119464 -0.00949145 -0.00500361 -2.96065e-10 -9.47836e-10 -3.63943e-09 4.32543e-10 1.05503e-10
2529 1 0.000635 -0.0108424 -0.0101143 -0.00495978 -4.85084e-10 -1.26279e-09 -4.3143e-09 3.13615e-10 8.52903e-11
2615 1 0.000635 -0.00976661 -0.00951948 -0.00527499 -2.35624e-11 -2.65556e-10 -4.05945e-10 2.97716e-10 4.17269e-11
2700 1 0.000635 -0.00866636 -0.0101529 -0.0052619 -6.64971e-11 7.78463e-11 -7.21184e-10 2.77405e-10 2.63441e-11
2786 1 0.000635 -0.00757197 -0.009525 -0.0054 3.52794e-05 9.03434e-06 -1.76624e-06 1.98927e-10 8.18307e-12
2871 1 0.000635 -0.00647211 -0.01016 -0.0054 2.23026e-05 1.49892e-05 -1.57864e-06 2.09919e-10 3.10051e-12
2957 1 0.000635 -0.00537226 -0.009525 -0.0054 -3.72557e-08 -3.64402e-08 -2.87898e-06 7.91211e-11 3.74932e-35
3043 1 0.000635 -0.00427241 -0.01016 -0.0054 -2.96854e-08 -4.67927e-08 -3.04289e-06 8.82104e-11 2.71503e-35
3130 1 0.000635 -0.00317256 -0.009525 -0.0054 2.0671e-17 0 2.16e-11 1.05285e-24 6.46435e-36
3216 1 0.000635 -0.0020727 -0.01016 -0.0054 -6.77626e-21 0 2.16e-11 0 5.17148e-36
3303 1 0.000635 -0.000972852 -0.009525 -0.0054 0 0 2.16e-11 0 5.17148e-36
3389 1 0.000635 0.000127 -0.01016 -0.0054 0 0 2.16e-11 0 5.17148e-36
3476 1 0.000635 0.00122685 -0.009525 -0.0054 0 0 2.16e-11 0 5.17148e-36
3562 1 0.000635 0.0023267 -0.01016 -0.0054 0 0 2.16e-11 0 5.17148e-36
3649 1 0.000635 0.00342656 -0.009525 -0.0054 4.13115e-17 0 2.16e-11 0 1.0343e-35
3735 1 0.000635 0.00452641 -0.01016 -0.0054 2.44807e-08 -8.62339e-09 -1.8796e-06 3.52151e-11 3.10289e-35
3822 1 0.000635 0.00562626 -0.009525 -0.0054 1.92754e-08 -3.45598e-09 -1.47839e-06 2.21497e-11 3.74932e-35
3907 1 0.000635 0.00672611 -0.01016 -0.0054 1.75915e-06 -2.41677e-05 2.5989e-06 3.93259e-11 2.45344e-12
3993 1 0.000635 0.00782597 -0.009525 -0.0054 -7.33045e-06 -1.63629e-05 8.95247e-08 1.10483e-10 2.24757e-12
4078 1 0.000635 0.00892463 -0.0101575 -0.00532664 3.26767e-10 -2.42011e-10 -4.00559e-09 2.77863e-10 1.63881e-11
4164 1 0.000635 0.0100188 -0.00951637 -0.00524612 -1.57841e-10 3.54504e-10 1.63136e-09 2.9889e-10 3.57979e-11
4249 1 0.000635 0.0110485 -0.0100953 -0.00477877 1.20282e-09 -6.53049e-10 -1.94296e-09 2.19964e-10 4.63095e-11
2111 1 0.000635 -0.0163141 -0.00825304 -0.00466645 1.0531e-09 6.37311e-10 8.52849e-09 4.59508e-10 4.18165e-11
2193 1 0.000635 -0.0152172 -0.0088798 -0.0047913 -4.69023e-10 4.37986e-10 7.61889e-10 6.90505e-10 2.43337e-11
2277 1 0.000635 -0.0141576 -0.00825126 -0.00509697 -2.26203e-10 2.46167e-10 1.05999e-09 6.38521e-10 4.14652e-11
2361 1 0.000635 -0.0130515 -0.00887078 -0.0050491 -2.20717e-10 -6.00653e-10 -2.60568e-09 8.13967e-10 7.86192e-11
2446 1 0.000635 -0.011968 -0.00825311 -0.00528627 -1.7763e-10 -2.77716e-10 -1.35752e-09 4.256e-10 8.34352e-12
2530 1 0.000635 -0.0108671 -0.00888642 -0.00528593 -6.17894e-11 -3.35321e-10 -1.35998e-09 3.80772e-10 2.32332e-11
2616 1 0.000635 -0.00977167 -0.008255 -0.0054 1.90829e-05 -2.07611e-05 2.0587e-06 1.63333e-10 9.13074e-12
2701 1 0.000635 -0.00867182 -0.00889 -0.0054 4.58781e-05 2.6133e-06 -1.86725e-06 1.85099e-10 1.53939e-11
2787 1 0.000635 -0.00757197 -0.008255 -0.0054 -4.24147e-08 -1.72086e-08 -2.4433e-06 5.71743e-11 4.0079e-35
2872 1 0.000635 -0.00647211 -0.00889 -0.0054 -4.10438e-08 -2.61863e-08 -2.66887e-06 6.81394e-11 3.74932e-35
2958 1 0.000635 -0.00537226 -0.008255 -0.0054 1.44607e-16 -7.15799e-17 2.16e-11 5.26426e-25 4.0079e-35
3044 1 0.000635 -0.00427241 -0.00889 -0.0054 -1.03289e-16 -4.76841e-17 2.16e-11 1.05285e-24 2.71503e-35
3131 1 0.000635 -0.00317256 -0.008255 -0.0054 3.09912e-17 -7.75431e-17 2.16e-11 5.26426e-25 1.87466e-35
3217 1 0.000635 -0.0020727 -0.00889 -0.0054 -3.38813e-21 -4.76866e-17 2.16e-11 0 5.17148e-36
3304 1 0.000635 -0.000972852 -0.008255 -0.0054 0 -7.15833e-17 2.16e-11 0 1.0343e-35
3390 1 0.000635 0.000127 -0.00889 -0.0054 0 -4.76866e-17 2.16e-11 0 5.17148e-36
3477 1 0.000635 0.00122685 -0.008255 -0.0054 0 -7.15833e-17 2.16e-11 0 1.0343e-35
3563 1 0.000635 0.0023267 -0.00889 -0.0054 0 -4.76858e-17 2.16e-11 0 5.17148e-36
3650 1 0.000635 0.00342656 -0.008255 -0.0054 4.13098e-17 -7.15825e-17 2.16e-11 0 1.0343e-35
3736 1 0.000635 0.00452641 -0.00889 -0.0054 4.13115e-17 -4.76841e-17 2.16e-11 0 3.10289e-35
3823 1 0.000635 0.00562626 -0.008255 -0.0054 -1.446e-16 -7.15791e-17 2.16e-11 0 4.0079e-35
3908 1 0.000635 0.00672611 -0.00889 -0.0054 7.48684e-09 -1.19682e-08 -1.37233e-06 1.78778e-11 1.68073e-35
3994 1 0.000635 0.00782597 -0.008255 -0.0054 -8.66752e-09 -3.08018e-08 -1.90088e-06 4.05822e-11 1.0343e-35
4079 1 0.000635 0.00892582 -0.00889 -0.0054 -4.23963e-05 4.4791e-05 -7.43942e-06 2.16519e-10 1.30448e-11
4165 1 0.000635 0.0100257 -0.008255 -0.0054 0.000105509 -5.1354e-06 2.43744e-05 2.92498e-10 5.31387e-11
4250 1 0.000635 0.0110939 -0.00886265 -0.00507769 -2.40903e-09 2.00591e-09 8.70786e-09 3.19206e-10 3.46487e-11
4335 1 0.000635 0.0121627 -0.00820461 -0.00488703 -1.51828e-09 1.43425e-09 3.67787e-09 2.85039e-10 1.77209e-11
2112 1 0.000635 -0.0163152 -0.00698303 -0.00467376 1.99276e-10 3.69675e-10 3.13264e-09 6.55286e-11 2.99837e-11
2194 1 0.000635 -0.0152436 -0.00761708 -0.00492304 -1.35474e-09 8.5266e-11 -3.8211e-09 3.63181e-10 5.99221e-11
2278 1 0.000635 -0.0141599 -0.00698234 -0.00512154 -7.03249e-10 5.926e-11 -1.49322e-09 5.59497e-10 6.54451e-11
2362 1 0.000635 -0.0130681 -0.00761827 -0.00525652 -1.82961e-10 -2.65581e-11 5.0008e-10 4.32073e-10 1.78584e-11
2447 1 0.000635 -0.0119709 -0.00698475 -0.00535003 -6.19163e-11 -9.8626e-11 2.93715e-10 1.0561e-10 7.24871e-12
2531 1 0.000635 -0.0108715 -0.00762 -0.00538426 4.57382e-11 4.02455e-12 2.81402e-09 1.33743e-10 1.82574e-12
2617 1 0.000635 -0.00977167 -0.006985 -0.0054 -3.86907e-06 -2.20886e-06 -1.76825e-06 3.47791e-11 8.83491e-14
2702 1 0.000635 -0.00867182 -0.00762 -0.0054 -4.42288e-08 -6.79211e-09 -2.22392e-06 4.73216e-11 2.9736e-35
2788 1 0.000635 -0.00757197 -0.006985 -0.0054 1.44605e-16 -2.38958e-17 2.16e-11 0 4.0079e-35
2873 1 0.000635 -0.00647211 -0.00762 -0.0054 -1.44609e-16 2.38967e-17 2.16e-11 0 4.0079e-35
2959 1 0.000635 -0.00537226 -0.006985 -0.0054 1.44605e-16 -2.38958e-17 2.16e-11 0 4.0079e-35
3045 1 0.000635 -0.00427241 -0.00762 -0.0054 -1.13623e-16 2.98573e-17 2.16e-11 0 2.90896e-35
3132 1 0.000635 -0.00317256 -0.006985 -0.0054 3.09912e-17 -2.98573e-17 2.16e-11 0 1.87466e-35
3218 1 0.000635 -0.0020727 -0.00762 -0.0054 -1.69407e-21 2.38958e-17 2.16e-11 0 1.0343e-35
3305 1 0.000635 -0.000972852 -0.006985 -0.0054 0 -2.38967e-17 2.16e-11 0 1.0343e-35
3391 1 0.000635 0.000127 -0.00762 -0.0054 0 2.38967e-17 2.16e-11 0 1.0343e-35
3478 1 0.000635 0.00122685 -0.006985 -0.0054 0 -2.38967e-17 2.16e-11 0 1.0343e-35
3564 1 0.000635 0.0023267 -0.00762 -0.0054 0 2.38967e-17 2.16e-11 0 1.0343e-35
3651 1 0.000635 0.00342656 -0.006985 -0.0054 4.13081e-17 -2.38967e-17 2.16e-11 0 1.0343e-35
3737 1 0.000635 0.00452641 -0.00762 -0.0054 4.13217e-17 2.38958e-17 2.16e-11 0 2.06859e-35
3824 1 0.000635 0.00562626 -0.006985 -0.0054 -1.44599e-16 -2.3895e-17 2.16e-11 0 4.0079e-35
3909 1 0.000635 0.00672611 -0.00762 -0.0054 6.19757e-17 2.38958e-17 2.16e-11 0 2.9736e-35
3995 1 0.000635 0.00782597 -0.006985 -0.0054 -6.77626e-21 -2.38967e-17 2.16e-11 0 1.0343e-35
4080 1 0.000635 0.00892582 -0.00762 -0.0054 -2.41494e-08 -5.99836e-08 -3.48866e-06 1.63138e-10 1.0343e-35
4166 1 0.000635 0.0100257 -0.006985 -0.0054 -3.51901e-05 2.02279e-05 -5.93952e-06 2.38687e-10 7.5965e-12
4251 1 0.000635 0.0111233 -0.0076175 -0.00532091 2.7904e-10 -2.13545e-10 -3.01001e-09 3.271e-10 7.24333e-11
4336 1 0.000635 0.0122116 -0.0069737 -0.00519453 6.83759e-10 -6.01454e-10 -4.05524e-09 3.41886e-10 2.74041e-11
2195 1 0.000635 -0.0152365 -0.0063478 -0.00489423 -1.23346e-09 2.31963e-10 -4.00352e-09 5.74284e-11 3.17438e-11
2279 1 0.000635 -0.014152 -0.00571325 -0.005085 -8.42668e-10 1.28559e-10 -2.28228e-09 2.6637e-11 2.87983e-11
2363 1 0.000635 -0.0130672 -0.00634884 -0.00526371 5.60535e-10 -3.77908e-11 7.86654e-09 9.62568e-11 2.55839e-11
2448 1 0.000635 -0.011971 -0.00571502 -0.00536908 4.30814e-10 1.02147e-10 9.13064e-09 3.92578e-11 1.04213e-11
2532 1 0.000635 -0.0108715 -0.00635 -0.0054 -2.6222e-05 -1.62873e-05 1.06092e-06 2.82023e-11 3.2728e-12
2618 1 0.000635 -0.00977167 -0.005715 -0.0054 -2.19615e-11 3.80383e-11 -4.40558e-07 3.66965e-12 6.85221e-35
2703 1 0.000635 -0.00867182 -0.00635 -0.0054 -5.42507e-11 9.39649e-11 -1.38762e-07 3.63999e-13 2.9736e-35
2789 1 0.000635 -0.00757197 -0.005715 -0.0054 1.44602e-16 4.76832e-17 2.16e-11 0 3.74932e-35
2874 1 0.000635 -0.00647211 -0.00635 -0.0054 -1.44609e-16 7.15816e-17 2.16e-11 0 4.0079e-35
2960 1 0.000635 -0.00537226 -0.005715 -0.0054 1.44604e-16 4.76841e-17 2.16e-11 5.26426e-25 3.74932e-35
3046 1 0.000635 -0.00427241 -0.00635 -0.0054 -1.13621e-16 7.75431e-17 2.16e-11 0 2.90896e-35
3133 1 0.000635 -0.00317256 -0.005715 -0.0054 2.0671e-17 4.76858e-17 2.16e-11 5.26426e-25 6.46435e-36
3219 1 0.000635 -0.0020727 -0.00635 -0.0054 -5.0822e-21 7.15842e-17 2.16e-11 0 1.0343e-35
3306 1 0.000635 -0.000972852 -0.005715 -0.0054 0 4.76866e-17 2.16e-11 0 5.17148e-36
3392 1 0.000635 0.000127 -0.00635 -0.0054 0 7.1585e-17 2.16e-11 0 1.0343e-35
3479 1 0.000635 0.00122685 -0.005715 -0.0054 0 4.76866e-17 2.16e-11 0 5.17148e-36
3565 1 0.000635 0.0023267 -0.00635 -0.0054 0 7.15842e-17 2.16e-11 0 1.0343e-35
3652 1 0.000635 0.00342656 -0.005715 -0.0054 4.13098e-17 4.76858e-17 2.16e-11 0 1.0343e-35
3738 1 0.000635 0.00452641 -0.00635 -0.0054 4.13183e-17 7.15816e-17 2.16e-11 0 2.06859e-35
3825 1 0.000635 0.00562626 -0.005715 -0.0054 -1.44597e-16 4.76841e-17 2.16e-11 0 3.74932e-35
3910 1 0.000635 0.00672611 -0.00635 -0.0054 6.19774e-17 7.15825e-17 2.16e-11 0 2.9736e-35
3996 1 0.000635 0.00782597 -0.005715 -0.0054 -6.77626e-21 4.76849e-17 2.16e-11 0 5.17148e-36
4081 1 0.000635 0.00892582 -0.00635 -0.0054 -4.53891e-09 -7.86163e-09 -6.97892e-07 9.21524e-12 1.0343e-35
4167 1 0.000635 0.0100257 -0.005715 -0.0054 -1.27743e-08 -2.21257e-08 -1.81335e-06 6.25663e-11 6.85221e-35
4252 1 0.000635 0.0111255 -0.00635 -0.0054 -6.31499e-05 1.06559e-05 -7.68472e-06 2.99949e-10 1.32792e-11
4337 1 0.000635 0.0122244 -0.00571513 -0.00536909 -2.83409e-11 9.1236e-12 6.47425e-10 3.59841e-10 2.0914e-11
4421 1 0.000635 0.0132826 -0.00631714 -0.0050094 1.87551e-09 -1.48843e-09 -7.29242e-09 5.48206e-10 2.07533e-11
2196 1 0.000635 -0.0152272 -0.00507872 -0.00485255 4.85017e-10 3.60144e-11 3.72418e-09 6.58673e-12 1.20384e-11
2364 1 0.000635 -0.013064 -0.00507901 -0.00525638 -2.71258e-10 9.81008e-11 5.12957e-10 5.58051e-11 4.68994e-11
2533 1 0.000635 -0.0108715 -0.00508 -0.0054 -4.5722e-06 -2.66629e-06 -1.49706e-06 4.58186e-11 1.24921e-13
2704 1 0.000635 -0.00867182 -0.00508 -0.0054 -6.19774e-17 -2.3845e-17 2.16e-11 0 1.42216e-35
2875 1 0.000635 -0.00647211 -0.00508 -0.0054 -1.44605e-16 -2.38442e-17 2.16e-11 0 3.49075e-35
3047 1 0.000635 -0.00427241 -0.00508 -0.0054 -1.03287e-16 -2.38433e-17 2.16e-11 1.57928e-24 2.45645e-35
3220 1 0.000635 -0.0020727 -0.00508 -0.0054 -3.38813e-21 -2.38442e-17 2.16e-11 0 2.58574e-36
3393 1 0.000635 0.000127 -0.00508 -0.0054 0 -2.38442e-17 2.16e-11 0 2.58574e-36
3566 1 0.000635 0.0023267 -0.00508 -0.0054 -3.38813e-21 -2.38459e-17 2.16e-11 0 2.58574e-36
3739 1 0.000635 0.00452641 -0.00508 -0.0054 4.13081e-17 -2.38433e-17 2.16e-11 5.26426e-25 2.84431e-35
3911 1 0.000635 0.00672611 -0.00508 -0.0054 6.19859e-17 -2.38442e-17 2.16e-11 0 1.42216e-35
4082 1 0.000635 0.00892582 -0.00508 -0.0054 -8.47033e-21 -2.3845e-17 2.16e-11 0 2.58574e-36
4253 1 0.000635 0.0111255 -0.00508 -0.0054 -1.75921e-05 1.00746e-05 -4.23871e-06 1.82424e-10 1.88683e-12
4422 1 0.000635 0.0133202 -0.00507863 -0.00528985 4.21603e-10 -3.26976e-10 -3.87647e-09 4.26814e-10 1.44679e-11
4506 1 0.000635 0.0143242 -0.00563916 -0.00475255 2.29604e-09 -1.89242e-09 -9.3579e-09 6.93623e-10 5.41688e-11
4590 1 0.000635 0.01545 -0.00505362 -0.00476166 1.03615e-10 1.39846e-09 -4.65232e-10 4.50881e-10 2.80337e-11
2197 1 0.000635 -0.0152205 -0.00380931 -0.00482288 -1.33139e-09 2.06119e-10 -5.45797e-09 2.5852e-12 6.15586e-12
2280 1 0.000635 -0.0141452 -0.00444401 -0.00505481 -1.63787e-09 2.31942e-10 -7.33528e-09 1.61992e-11 1.53486e-11
2365 1 0.000635 -0.0130606 -0.00380964 -0.00524407 -5.41937e-10 7.31058e-11 -2.51061e-09 7.86348e-11 1.8076e-11
2449 1 0.000635 -0.0119714 -0.004445 -0.0054 -9.54209e-05 -4.23196e-05 1.8672e-05 7.28402e-11 3.42931e-11
2534 1 0.000635 -0.0108715 -0.00381 -0.0054 -3.66535e-08 -2.14802e-08 -2.64092e-06 6.63067e-11 4.65433e-35
2619 1 0.000635 -0.00977167 -0.004445 -0.0054 -8.01341e-10 1.38796e-09 -2.72663e-07 1.40543e-12 6.01185e-35
2705 1 0.000635 -0.00867182 -0.00381 -0.0054 -8.2623e-17 0 2.16e-11 1.05285e-24 2.06859e-35
2790 1 0.000635 -0.00757197 -0.004445 -0.0054 1.44602e-16 -5.96282e-17 2.16e-11 5.26426e-25 3.74932e-35
2876 1 0.000635 -0.00647211 -0.00381 -0.0054 -1.44605e-16 0 2.16e-11 0 3.23218e-35
2961 1 0.000635 -0.00537226 -0.004445 -0.0054 1.44604e-16 -5.9629e-17 2.16e-11 5.26426e-25 3.74932e-35
3048 1 0.000635 -0.00427241 -0.00381 -0.0054 -1.03291e-16 0 2.16e-11 0 1.68073e-35
3134 1 0.000635 -0.00317256 -0.004445 -0.0054 3.09963e-17 -5.36693e-17 2.16e-11 1.57928e-24 8.40366e-36
3221 1 0.000635 -0.0020727 -0.00381 -0.0054 -6.77626e-21 0 2.16e-11 2.10571e-24 0
3307 1 0.000635 -0.000972852 -0.004445 -0.0054 0 -4.77053e-17 2.16e-11 1.05285e-24 5.17148e-36
3394 1 0.000635 0.000127 -0.00381 -0.0054 0 0 2.16e-11 1.05285e-24 0
3480 1 0.000635 0.00122685 -0.004445 -0.0054 0 -4.77053e-17 2.16e-11 1.05285e-24 5.17148e-36
3567 1 0.000635 0.0023267 -0.00381 -0.0054 0 0 2.16e-11 2.10571e-24 0
3653 1 0.000635 0.00342656 -0.004445 -0.0054 3.09811e-17 -5.36701e-17 2.16e-11 1.05285e-24 8.40366e-36
3740 1 0.000635 0.00452641 -0.00381 -0.0054 4.13217e-17 7.70372e-34 2.16e-11 0 1.29287e-35
3826 1 0.000635 0.00562626 -0.004445 -0.0054 -1.44597e-16 -5.9629e-17 2.16e-11 5.26426e-25 3.74932e-35
3912 1 0.000635 0.00672611 -0.00381 -0.0054 8.26298e-17 0 2.16e-11 1.05285e-24 2.06859e-35
3997 1 0.000635 0.00782597 -0.004445 -0.0054 -3.38813e-21 -4.77061e-17 2.16e-11 1.05285e-24 5.17148e-36
4083 1 0.000635 0.00892582 -0.00381 -0.0054 -6.77626e-21 0 2.16e-11 1.05285e-24 0
4168 1 0.000635 0.0100257 -0.004445 -0.0054 2.53902e-09 4.3977e-09 -2.72623e-07 1.40545e-12 6.01185e-35
4254 1 0.000635 0.0111255 -0.00381 -0.0054 1.49717e-08 -5.6728e-09 -1.79224e-06 3.06269e-11 4.65433e-35
4338 1 0.000635 0.0122254 -0.004445 -0.0054 3.97802e-05 8.62837e-06 1.35184e-06 3.51667e-10 2.03385e-11
4423 1 0.000635 0.0133233 -0.00380919 -0.00532291 -5.80303e-11 -1.68313e-10 1.69631e-09 2.28027e-10 4.03689e-11
4507 1 0.000635 0.014413 -0.00444282 -0.00516741 9.77941e-10 -4.14952e-10 -5.67713e-09 3.6754e-10 1.43911e-11
4591 1 0.000635 0.015501 -0.00380824 -0.0050022 2.02223e-09 -4.19826e-10 -1.02576e-08 2.40981e-10 2.24876e-11
4673 1 0.000635 0.0165574 -0.00443726 -0.00468233 3.21563e-10 4.1557e-10 -1.55725e-09 2.07173e-10 7.23015e-12
2198 1 0.000635 -0.0152171 -0.00253963 -0.00480837 -5.54438e-10 8.05501e-11 -1.86092e-09 1.90664e-12 3.79575e-12
2281 1 0.000635 -0.0141412 -0.00317452 -0.00503789 -2.39177e-09 1.84052e-10 -1.14333e-08 9.33041e-12 7.35756e-12
2366 1 0.000635 -0.0130604 -0.00253984 -0.00524398 -2.30616e-11 3.63913e-11 1.85569e-10 8.1066e-11 4.04342e-12
2450 1 0.000635 -0.0119714 -0.003175 -0.0054 -2.77398e-05 1.38364e-06 8.45208e-06 7.92373e-11 2.44331e-12
2535 1 0.000635 -0.0108715 -0.00254 -0.0054 -4.57278e-08 -3.18626e-09 -2.73759e-06 7.11619e-11 6.33506e-35
2620 1 0.000635 -0.00977167 -0.003175 -0.0054 -1.3427e-16 4.1748e-17 2.16e-11 5.26426e-25 5.81792e-35
2706 1 0.000635 -0.00867182 -0.00254 -0.0054 -7.2301e-17 -5.97417e-18 2.16e-11 0 1.61609e-35
2791 1 0.000635 -0.00757197 -0.003175 -0.0054 1.44602e-16 4.77053e-17 2.16e-11 5.26426e-25 3.55539e-35
2877 1 0.000635 -0.00647211 -0.00254 -0.0054 -1.44605e-16 -1.19365e-17 2.16e-11 0 3.23218e-35
2962 1 0.000635 -0.00537226 -0.003175 -0.0054 1.44604e-16 4.7707e-17 2.16e-11 0 3.55539e-35
3049 1 0.000635 -0.00427241 -0.00254 -0.0054 -1.03284e-16 -1.19373e-17 2.16e-11 5.26426e-25 1.93931e-35
3135 1 0.000635 -0.00317256 -0.003175 -0.0054 3.09963e-17 4.17472e-17 2.16e-11 1.05285e-24 6.46435e-36
3222 1 0.000635 -0.0020727 -0.00254 -0.0054 0 -1.43996e-20 2.16e-11 0 0
3308 1 0.000635 -0.000972852 -0.003175 -0.0054 0 3.57823e-17 2.16e-11 1.05285e-24 3.23218e-36
3395 1 0.000635 0.000127 -0.00254 -0.0054 0 -1.35525e-20 2.16e-11 0 0
3481 1 0.000635 0.00122685 -0.003175 -0.0054 0 3.57823e-17 2.16e-11 1.05285e-24 3.23218e-36
3568 1 0.000635 0.0023267 -0.00254 -0.0054 -6.77626e-21 -1.35525e-20 2.16e-11 0 0
3654 1 0.000635 0.00342656 -0.003175 -0.0054 3.09777e-17 4.17463e-17 2.16e-11 1.05285e-24 6.46435e-36
3741 1 0.000635 0.00452641 -0.00254 -0.0054 4.13115e-17 -1.19382e-17 2.16e-11 5.26426e-25 1.93931e-35
3827 1 0.000635 0.00562626 -0.003175 -0.0054 -1.44595e-16 4.77053e-17 2.16e-11 5.26426e-25 3.55539e-35
3913 1 0.000635 0.00672611 -0.00254 -0.0054 7.23095e-17 -5.97502e-18 2.16e-11 0 1.61609e-35
3998 1 0.000635 0.00782597 -0.003175 -0.0054 0 3.57823e-17 2.16e-11 1.05285e-24 3.23218e-36
4084 1 0.000635 0.00892582 -0.00254 -0.0054 -8.47033e-21 -1.27055e-20 2.16e-11 0 0
4169 1 0.000635 0.0100257 -0.003175 -0.0054 1.3427e-16 4.1748e-17 2.16e-11 5.26426e-25 5.81792e-35
4255 1 0.000635 0.0111255 -0.00254 -0.0054 1.20281e-08 -1.68373e-08 -1.59445e-06 2.45875e-11 6.33506e-35
4339 1 0.000635 0.0122254 -0.003175 -0.0054 4.33202e-05 1.01007e-05 5.05591e-06 3.61201e-11 6.6462e-12
4424 1 0.000635 0.0133218 -0.0025396 -0.00530691 -1.4797e-10 -1.8276e-10 2.13469e-09 4.34744e-11 1.38095e-11
4508 1 0.000635 0.0144164 -0.00317373 -0.00519053 3.39431e-10 -2.71892e-10 -1.1745e-09 2.92667e-10 5.0199e-11
4592 1 0.000635 0.0155028 -0.00253896 -0.00501117 1.69459e-09 -7.1475e-11 -1.02981e-08 1.03753e-10 3.44658e-11
4674 1 0.000635 0.0165839 -0.00317395 -0.0048054 2.66948e-10 2.00388e-10 -2.00152e-09 1.38829e-10 2.03135e-11
2199 1 0.000635 -0.0152159 -0.00126983 -0.00480348 -4.17061e-10 4.40942e-11 -8.38359e-10 1.59704e-12 2.92363e-12
2282 1 0.000635 -0.0141403 -0.00190476 -0.00503447 6.18977e-10 8.47323e-11 3.53349e-09 1.0613e-11 3.70695e-12
2367 1 0.000635 -0.0130606 -0.00126993 -0.00524547 -5.84703e-10 2.19448e-11 -3.24054e-09 8.11878e-11 2.49916e-12
2451 1 0.000635 -0.0119714 -0.001905 -0.0054 -1.83366e-05 2.15886e-06 7.16104e-06 7.98128e-11 1.10983e-12
2536 1 0.000635 -0.0108715 -0.00127 -0.0054 -4.66379e-08 -1.47995e-10 -2.73338e-06 7.09474e-11 6.33506e-35
2621 1 0.000635 -0.00977167 -0.001905 -0.0054 -1.44592e-16 -1.19229e-17 2.16e-11 5.26426e-25 6.39971e-35
2707 1 0.000635 -0.00867182 -0.00127 -0.0054 -7.2301e-17 5.96909e-18 2.16e-11 5.26426e-25 1.61609e-35
2792 1 0.000635 -0.00757197 -0.001905 -0.0054 1.44605e-16 -1.19229e-17 2.16e-11 0 3.29682e-35
2878 1 0.000635 -0.00647211 -0.00127 -0.0054 -1.44605e-16 1.19331e-17 2.16e-11 0 3.23218e-35
2963 1 0.000635 -0.00537226 -0.001905 -0.0054 1.44602e-16 -1.19246e-17 2.16e-11 0 3.29682e-35
3050 1 0.000635 -0.00427241 -0.00127 -0.0054 -1.13613e-16 5.96993e-18 2.16e-11 0 2.13324e-35
3136 1 0.000635 -0.00317256 -0.001905 -0.0054 4.13081e-17 -1.19229e-17 2.16e-11 0 5.81792e-36
3223 1 0.000635 -0.0020727 -0.00127 -0.0054 0 7.6233e-21 2.16e-11 0 0
3309 1 0.000635 -0.000972852 -0.001905 -0.0054 0 -1.19229e-17 2.16e-11 0 6.46435e-37
3396 1 0.000635 0.000127 -0.00127 -0.0054 0 6.77626e-21 2.16e-11 0 0
3482 1 0.000635 0.00122685 -0.001905 -0.0054 0 -1.19229e-17 2.16e-11 0 6.46435e-37
3569 1 0.000635 0.0023267 -0.00127 -0.0054 -6.77626e-21 6.77626e-21 2.16e-11 0 0
3655 1 0.000635 0.00342656 -0.001905 -0.0054 2.06608e-17 -1.19229e-17 2.16e-11 0 1.93931e-36
3742 1 0.000635 0.00452641 -0.00127 -0.0054 4.13149e-17 1.19331e-17 2.16e-11 5.26426e-25 1.93931e-35
3828 1 0.000635 0.00562626 -0.001905 -0.0054 -1.44599e-16 -1.19229e-17 2.16e-11 0 3.29682e-35
3914 1 0.000635 0.00672611 -0.00127 -0.0054 7.23078e-17 5.96909e-18 2.16e-11 5.26426e-25 1.61609e-35
3999 1 0.000635 0.00782597 -0.001905 -0.0054 -6.77626e-21 -1.19229e-17 2.16e-11 5.26426e-25 6.46435e-37
4085 1 0.000635 0.00892582 -0.00127 -0.0054 -6.77626e-21 6.77626e-21 2.16e-11 0 0
4170 1 0.000635 0.0100257 -0.001905 -0.0054 1.44599e-16 -1.19229e-17 2.16e-11 0 6.39971e-35
4256 1 0.000635 0.0111255 -0.00127 -0.0054 1.71078e-08 -8.71043e-09 -1.76057e-06 2.94807e-11 6.33506e-35
4340 1 0.000635 0.0122254 -0.001905 -0.0054 2.41453e-05 1.12173e-06 5.02023e-06 3.2873e-11 1.80592e-12
4425 1 0.000635 0.0133206 -0.00126985 -0.00529626 5.5138e-10 -8.73551e-11 -5.07873e-09 3.78394e-11 3.26674e-12
4509 1 0.000635 0.0144125 -0.00190448 -0.00516134 1.11694e-10 -2.0013e-10 -7.24584e-10 1.73588e-11 1.17092e-11
4593 1 0.000635 0.0154984 -0.00126966 -0.00498288 -1.89348e-10 -1.24769e-10 -9.84725e-11 8.45024e-12 8.1546e-12
4675 1 0.000635 0.0165844 -0.00190443 -0.00480617 3.6906e-10 8.21485e-11 -2.84815e-09 3.13827e-11 1.74955e-11
2200 1 0.000635 -0.0152156 -2.47634e-15 -0.00480254 2.84569e-09 -5.28416e-15 1.40349e-08 1.52852e-12 2.74788e-12
2283 1 0.000635 -0.0141402 -0.000634927 -0.00503446 -4.38413e-13 -8.49858e-12 6.82126e-10 1.11945e-11 2.94687e-12
2368 1 0.000635 -0.0130606 -1.36016e-15 -0.00524605 7.5904e-10 1.51046e-14 4.91238e-09 8.11889e-11 2.2878e-12
2452 1 0.000635 -0.0119714 -0.000635 -0.0054 -1.71062e-05 7.75521e-07 6.86589e-06 8.0098e-11 9.34533e-13
2622 1 0.000635 -0.00977167 -0.000635 -0.0054 -1.44599e-16 -8.47033e-21 2.16e-11 0 6.33506e-35
2793 1 0.000635 -0.00757197 -0.000635 -0.0054 1.44604e-16 -1.19339e-17 2.16e-11 5.26426e-25 3.23218e-35
2964 1 0.000635 -0.00537226 -0.000635 -0.0054 1.44604e-16 -1.19365e-17 2.16e-11 0 3.23218e-35
3137 1 0.000635 -0.00317256 -0.000635 -0.0054 4.13183e-17 -8.47033e-21 2.16e-11 0 5.17148e-36
3310 1 0.000635 -0.000972852 -0.000635 -0.0054 0 -8.47033e-21 2.16e-11 0 0
3483 1 0.000635 0.00122685 -0.000635 -0.0054 0 -8.47033e-21 2.16e-11 0 0
3656 1 0.000635 0.00342656 -0.000635 -0.0054 3.09811e-17 -5.97078e-18 2.16e-11 5.26426e-25 3.23218e-36
3829 1 0.000635 0.00562626 -0.000635 -0.0054 -1.44597e-16 -1.19339e-17 2.16e-11 5.26426e-25 3.23218e-35
4000 1 0.000635 0.00782597 -0.000635 -0.0054 0 -8.47033e-21 2.16e-11 0 0
4171 1 0.000635 0.0100257 -0.000635 -0.0054 1.44599e-16 -8.47033e-21 2.16e-11 0 6.33506e-35
4341 1 0.000635 0.0122254 -0.000635 -0.0054 1.21022e-05 2.3187e-07 4.22452e-06 3.67269e-11 4.56656e-13
4426 1 0.000635 0.0133202 4.23177e-16 -0.00529343 1.33036e-09 -3.37131e-14 -1.21224e-08 3.95403e-11 1.57878e-12
4510 1 0.000635 0.0144101 -0.000634877 -0.00514425 4.44011e-10 -3.86313e-11 -4.75322e-09 8.68253e-12 3.64373e-12