ITEM: TIMESTEP
750000
ITEM: NUMBER OF ATOMS
6793
ITEM: BOX BOUNDS ff ff ff
-8.9999999999999997e-02 8.9999999999999997e-02
-8.9999999999999997e-02 8.9999999999999997e-02
-4.0000000000000001e-02 4.0000000000000001e-02
ITEM: ATOMS id type radius x y z fx fy fz c_bendingE c_stretchingE
3214 1 0.000635 -0.0020727 -0.0127 -0.0081 -7.48994e-05 8.36236e-06 3.76393e-06 1.11691e-09 4.88714e-11
3300 1 0.000635 -0.000973005 -0.0133347 -0.00807193 8.28964e-11 2.63046e-10 2.87542e-09 8.19215e-10 1.76627e-11
3387 1 0.000635 0.000127 -0.0127 -0.0081 -4.22229e-06 -5.97924e-05 4.43987e-06 1.0226e-10 1.12145e-11
3560 1 0.000635 0.0023267 -0.0127 -0.0081 5.46416e-05 -0.000240722 6.22368e-05 1.6454e-10 1.93922e-10
3042 1 0.000635 -0.00427241 -0.01143 -0.0081 -6.11761e-06 5.16802e-05 -7.52185e-06 5.60253e-10 1.44661e-11
3128 1 0.000635 -0.00317256 -0.012065 -0.0081 -3.52715e-05 8.03251e-05 -1.06043e-05 7.14468e-10 5.41142e-11
3215 1 0.000635 -0.0020727 -0.01143 -0.0081 2.30491e-08 -8.71136e-08 -3.61448e-06 1.24478e-10 5.17148e-36
3301 1 0.000635 -0.000972852 -0.012065 -0.0081 5.14275e-08 -3.25342e-06 -3.21515e-06 1.09118e-10 4.42759e-14
3388 1 0.000635 0.000127 -0.01143 -0.0081 2.5216e-09 0 -9.13682e-07 1.58032e-11 5.17148e-36
3474 1 0.000635 0.00122685 -0.012065 -0.0081 -2.37854e-08 8.666e-06 -2.78814e-06 1.0327e-10 3.52337e-13
3561 1 0.000635 0.0023267 -0.01143 -0.0081 3.6419e-08 -4.44751e-08 -3.55071e-06 1.28842e-10 5.17148e-36
3647 1 0.000635 0.00342656 -0.012065 -0.0081 3.6713e-05 9.11587e-06 4.39318e-06 1.18289e-10 1.23769e-11
3734 1 0.000635 0.00452641 -0.01143 -0.0081 1.72665e-05 9.29262e-06 2.61045e-06 8.1301e-11 3.49716e-12
2956 1 0.000635 -0.00537226 -0.010795 -0.0081 1.62007e-05 3.2161e-05 -5.82935e-06 4.86857e-10 4.25149e-12
3129 1 0.000635 -0.00317256 -0.010795 -0.0081 -1.83233e-08 -7.4852e-08 -3.6041e-06 1.23796e-10 6.46435e-36
3302 1 0.000635 -0.000972852 -0.010795 -0.0081 1.34323e-09 -3.38813e-21 -2.47545e-07 1.15839e-12 5.17148e-36
3475 1 0.000635 0.00122685 -0.010795 -0.0081 3.76205e-09 0 -5.16627e-07 5.04722e-12 5.17148e-36
3648 1 0.000635 0.00342656 -0.010795 -0.0081 4.30136e-08 -2.59469e-08 -2.8011e-06 8.02329e-11 1.0343e-35
3821 1 0.000635 0.00562626 -0.010795 -0.0081 1.11539e-05 1.27181e-06 2.52654e-06 5.24831e-11 1.02534e-12
2786 1 0.000635 -0.00757197 -0.009525 -0.0081 5.17488e-05 8.37929e-06 -4.49026e-06 4.04814e-10 1.85299e-11
2871 1 0.000635 -0.00647211 -0.01016 -0.0081 3.51165e-05 1.87839e-05 -4.98885e-06 4.42829e-10 7.71999e-12
2957 1 0.000635 -0.00537226 -0.009525 -0.0081 -5.04535e-08 -4.81246e-08 -3.33336e-06 1.06182e-10 3.74932e-35
3043 1 0.000635 -0.00427241 -0.01016 -0.0081 -3.85776e-08 -6.1644e-08 -3.50454e-06 1.17186e-10 2.71503e-35
3130 1 0.000635 -0.00317256 -0.009525 -0.0081 2.0671e-17 0 2.16e-11 1.05285e-24 6.46435e-36
3216 1 0.000635 -0.0020727 -0.01016 -0.0081 -6.77626e-21 0 2.16e-11 0 5.17148e-36
3303 1 0.000635 -0.000972852 -0.009525 -0.0081 0 0 2.16e-11 0 5.17148e-36
3389 1 0.000635 0.000127 -0.01016 -0.0081 0 0 2.16e-11 0 5.17148e-36
3476 1 0.000635 0.00122685 -0.009525 -0.0081 0 0 2.16e-11 0 5.17148e-36
3562 1 0.000635 0.0023267 -0.01016 -0.0081 0 0 2.16e-11 0 5.17148e-36
3649 1 0.000635 0.00342656 -0.009525 -0.0081 4.13115e-17 0 2.16e-11 0 1.0343e-35
3735 1 0.000635 0.00452641 -0.01016 -0.0081 2.60873e-08 -1.41071e-08 -2.09983e-06 4.42239e-11 3.10289e-35
3822 1 0.000635 0.00562626 -0.009525 -0.0081 2.00014e-08 -3.96395e-09 -1.56692e-06 2.53063e-11 3.74932e-35
3907 1 0.000635 0.00672611 -0.01016 -0.0081 1.17232e-05 -1.39471e-05 2.20429e-06 4.41947e-11 1.06851e-12
3993 1 0.000635 0.00782597 -0.009525 -0.0081 2.03271e-06 -2.54745e-05 1.0708e-07 1.49637e-10 2.69853e-12
2616 1 0.000635 -0.00977167 -0.008255 -0.0081 8.70968e-06 -4.52822e-05 5.98497e-06 2.89611e-10 1.65009e-11
2701 1 0.000635 -0.00867182 -0.00889 -0.0081 6.52451e-05 -1.55813e-06 -4.09593e-06 3.55683e-10 3.29899e-11
2787 1 0.000635 -0.00757197 -0.008255 -0.0081 -5.79431e-08 -2.57016e-08 -2.91294e-06 8.10565e-11 4.0079e-35
2872 1 0.000635 -0.00647211 -0.00889 -0.0081 -5.62803e-08 -3.55599e-08 -3.1197e-06 9.30993e-11 3.74932e-35
2958 1 0.000635 -0.00537226 -0.008255 -0.0081 1.44607e-16 -7.15799e-17 2.16e-11 5.26426e-25 4.0079e-35
3044 1 0.000635 -0.00427241 -0.00889 -0.0081 -1.03289e-16 -4.76841e-17 2.16e-11 1.05285e-24 2.71503e-35
3131 1 0.000635 -0.00317256 -0.008255 -0.0081 3.09912e-17 -7.75431e-17 2.16e-11 5.26426e-25 1.87466e-35
3217 1 0.000635 -0.0020727 -0.00889 -0.0081 -3.38813e-21 -4.76866e-17 2.16e-11 0 5.17148e-36
3304 1 0.000635 -0.000972852 -0.008255 -0.0081 0 -7.15833e-17 2.16e-11 0 1.0343e-35
3390 1 0.000635 0.000127 -0.00889 -0.0081 0 -4.76866e-17 2.16e-11 0 5.17148e-36
3477 1 0.000635 0.00122685 -0.008255 -0.0081 0 -7.15833e-17 2.16e-11 0 1.0343e-35
3563 1 0.000635 0.0023267 -0.00889 -0.0081 0 -4.76858e-17 2.16e-11 0 5.17148e-36
3650 1 0.000635 0.00342656 -0.008255 -0.0081 4.13098e-17 -7.15825e-17 2.16e-11 0 1.0343e-35
3736 1 0.000635 0.00452641 -0.00889 -0.0081 4.13115e-17 -4.76841e-17 2.16e-11 0 3.10289e-35
3823 1 0.000635 0.00562626 -0.008255 -0.0081 -1.446e-16 -7.15791e-17 2.16e-11 0 4.0079e-35
3908 1 0.000635 0.00672611 -0.00889 -0.0081 8.26243e-09 -1.11382e-08 -1.3377e-06 1.75603e-11 1.68073e-35
3994 1 0.000635 0.00782597 -0.008255 -0.0081 -1.00652e-08 -3.05053e-08 -1.90238e-06 4.04253e-11 1.0343e-35
4079 1 0.000635 0.00892582 -0.00889 -0.0081 -4.7163e-05 5.46306e-05 -9.83552e-06 3.70569e-10 1.73036e-11
4165 1 0.000635 0.0100257 -0.008255 -0.0081 0.000113114 2.1293e-05 2.25478e-05 5.09329e-10 7.67695e-11
2531 1 0.000635 -0.0108714 -0.00762 -0.00807431 -5.52081e-11 -8.07753e-11 -1.79057e-09 2.20839e-10 2.5272e-12
2617 1 0.000635 -0.00977167 -0.006985 -0.0081 -6.415e-06 -3.66766e-06 -1.98238e-06 5.32803e-11 2.43504e-13
2702 1 0.000635 -0.00867182 -0.00762 -0.0081 -6.2192e-08 -1.09743e-08 -2.74107e-06 7.15405e-11 2.9736e-35
2788 1 0.000635 -0.00757197 -0.006985 -0.0081 1.44605e-16 -2.38958e-17 2.16e-11 0 4.0079e-35
2873 1 0.000635 -0.00647211 -0.00762 -0.0081 -1.44609e-16 2.38967e-17 2.16e-11 0 4.0079e-35
2959 1 0.000635 -0.00537226 -0.006985 -0.0081 1.44605e-16 -2.38958e-17 2.16e-11 0 4.0079e-35
3045 1 0.000635 -0.00427241 -0.00762 -0.0081 -1.13623e-16 2.98573e-17 2.16e-11 0 2.90896e-35
3132 1 0.000635 -0.00317256 -0.006985 -0.0081 3.09912e-17 -2.98573e-17 2.16e-11 0 1.87466e-35
3218 1 0.000635 -0.0020727 -0.00762 -0.0081 -1.69407e-21 2.38958e-17 2.16e-11 0 1.0343e-35
3305 1 0.000635 -0.000972852 -0.006985 -0.0081 0 -2.38967e-17 2.16e-11 0 1.0343e-35
3391 1 0.000635 0.000127 -0.00762 -0.0081 0 2.38967e-17 2.16e-11 0 1.0343e-35
3478 1 0.000635 0.00122685 -0.006985 -0.0081 0 -2.38967e-17 2.16e-11 0 1.0343e-35
3564 1 0.000635 0.0023267 -0.00762 -0.0081 0 2.38967e-17 2.16e-11 0 1.0343e-35
3651 1 0.000635 0.00342656 -0.006985 -0.0081 4.13081e-17 -2.38967e-17 2.16e-11 0 1.0343e-35
3737 1 0.000635 0.00452641 -0.00762 -0.0081 4.13217e-17 2.38958e-17 2.16e-11 0 2.06859e-35
3824 1 0.000635 0.00562626 -0.006985 -0.0081 -1.44599e-16 -2.3895e-17 2.16e-11 0 4.0079e-35
3909 1 0.000635 0.00672611 -0.00762 -0.0081 6.19757e-17 2.38958e-17 2.16e-11 0 2.9736e-35
3995 1 0.000635 0.00782597 -0.006985 -0.0081 -6.77626e-21 -2.38967e-17 2.16e-11 0 1.0343e-35
4080 1 0.000635 0.00892582 -0.00762 -0.0081 -2.79098e-08 -5.62182e-08 -3.83522e-06 2.15398e-10 1.0343e-35
4166 1 0.000635 0.0100257 -0.006985 -0.0081 -5.51876e-05 3.17464e-05 -9.24354e-06 3.86622e-10 1.87274e-11
2532 1 0.000635 -0.0108715 -0.00635 -0.0081 -3.5201e-05 -3.85714e-05 2.51329e-06 5.42877e-11 9.93754e-12
2618 1 0.000635 -0.00977167 -0.005715 -0.0081 -1.59141e-09 2.7564e-09 -6.25313e-07 7.39574e-12 6.85221e-35
2703 1 0.000635 -0.00867182 -0.00635 -0.0081 -3.45953e-10 5.99208e-10 -2.26538e-07 9.70108e-13 2.9736e-35
2789 1 0.000635 -0.00757197 -0.005715 -0.0081 1.44602e-16 4.76832e-17 2.16e-11 0 3.74932e-35
2874 1 0.000635 -0.00647211 -0.00635 -0.0081 -1.44609e-16 7.15816e-17 2.16e-11 0 4.0079e-35
2960 1 0.000635 -0.00537226 -0.005715 -0.0081 1.44604e-16 4.76841e-17 2.16e-11 5.26426e-25 3.74932e-35
3046 1 0.000635 -0.00427241 -0.00635 -0.0081 -1.13621e-16 7.75431e-17 2.16e-11 0 2.90896e-35
3133 1 0.000635 -0.00317256 -0.005715 -0.0081 2.0671e-17 4.76858e-17 2.16e-11 5.26426e-25 6.46435e-36
3219 1 0.000635 -0.0020727 -0.00635 -0.0081 -5.0822e-21 7.15842e-17 2.16e-11 0 1.0343e-35
3306 1 0.000635 -0.000972852 -0.005715 -0.0081 0 4.76866e-17 2.16e-11 0 5.17148e-36
3392 1 0.000635 0.000127 -0.00635 -0.0081 0 7.1585e-17 2.16e-11 0 1.0343e-35
3479 1 0.000635 0.00122685 -0.005715 -0.0081 0 4.76866e-17 2.16e-11 0 5.17148e-36
3565 1 0.000635 0.0023267 -0.00635 -0.0081 0 7.15842e-17 2.16e-11 0 1.0343e-35
3652 1 0.000635 0.00342656 -0.005715 -0.0081 4.13098e-17 4.76858e-17 2.16e-11 0 1.0343e-35
3738 1 0.000635 0.00452641 -0.00635 -0.0081 4.13183e-17 7.15816e-17 2.16e-11 0 2.06859e-35
3825 1 0.000635 0.00562626 -0.005715 -0.0081 -1.44597e-16 4.76841e-17 2.16e-11 0 3.74932e-35
3910 1 0.000635 0.00672611 -0.00635 -0.0081 6.19774e-17 7.15825e-17 2.16e-11 0 2.9736e-35
3996 1 0.000635 0.00782597 -0.005715 -0.0081 -6.77626e-21 4.76849e-17 2.16e-11 0 5.17148e-36
4081 1 0.000635 0.00892582 -0.00635 -0.0081 -4.33797e-09 -7.51359e-09 -8.86649e-07 1.48818e-11 1.0343e-35
4167 1 0.000635 0.0100257 -0.005715 -0.0081 -1.27136e-08 -2.20205e-08 -2.51548e-06 1.21139e-10 6.85221e-35
4252 1 0.000635 0.0111255 -0.00635 -0.0081 -0.000126233 -3.91567e-05 -1.46567e-05 5.44373e-10 5.45555e-11
2533 1 0.000635 -0.0108715 -0.00508 -0.0081 -7.42939e-06 -4.3482e-06 -2.38269e-06 1.00153e-10 3.28124e-13
2704 1 0.000635 -0.00867182 -0.00508 -0.0081 -6.19774e-17 -2.3845e-17 2.16e-11 0 1.42216e-35
2875 1 0.000635 -0.00647211 -0.00508 -0.0081 -1.44605e-16 -2.38442e-17 2.16e-11 0 3.49075e-35
3047 1 0.000635 -0.00427241 -0.00508 -0.0081 -1.03287e-16 -2.38433e-17 2.16e-11 1.57928e-24 2.45645e-35
3220 1 0.000635 -0.0020727 -0.00508 -0.0081 -3.38813e-21 -2.38442e-17 2.16e-11 0 2.58574e-36
3393 1 0.000635 0.000127 -0.00508 -0.0081 0 -2.38442e-17 2.16e-11 0 2.58574e-36
3566 1 0.000635 0.0023267 -0.00508 -0.0081 -3.38813e-21 -2.38459e-17 2.16e-11 0 2.58574e-36
3739 1 0.000635 0.00452641 -0.00508 -0.0081 4.13081e-17 -2.38433e-17 2.16e-11 5.26426e-25 2.84431e-35
3911 1 0.000635 0.00672611 -0.00508 -0.0081 6.19859e-17 -2.38442e-17 2.16e-11 0 1.42216e-35
4082 1 0.000635 0.00892582 -0.00508 -0.0081 -8.47033e-21 -2.3845e-17 2.16e-11 0 2.58574e-36
4253 1 0.000635 0.0111255 -0.00508 -0.0081 -3.73705e-05 2.1484e-05 -7.13161e-06 3.80452e-10 8.54956e-12
2449 1 0.000635 -0.0119714 -0.004445 -0.0081 -0.000126815 -7.43194e-05 3.31604e-05 1.52139e-10 6.8789e-11
2534 1 0.000635 -0.0108715 -0.00381 -0.0081 -7.85682e-08 -4.17099e-08 -3.76863e-06 1.35671e-10 4.65433e-35
2619 1 0.000635 -0.00977167 -0.004445 -0.0081 -2.08296e-09 3.60779e-09 -3.23425e-07 1.97776e-12 6.01185e-35
2705 1 0.000635 -0.00867182 -0.00381 -0.0081 -8.2623e-17 0 2.16e-11 1.05285e-24 2.06859e-35
2790 1 0.000635 -0.00757197 -0.004445 -0.0081 1.44602e-16 -5.96282e-17 2.16e-11 5.26426e-25 3.74932e-35
2876 1 0.000635 -0.00647211 -0.00381 -0.0081 -1.44605e-16 0 2.16e-11 0 3.23218e-35
2961 1 0.000635 -0.00537226 -0.004445 -0.0081 1.44604e-16 -5.9629e-17 2.16e-11 5.26426e-25 3.74932e-35
3048 1 0.000635 -0.00427241 -0.00381 -0.0081 -1.03291e-16 0 2.16e-11 0 1.68073e-35
3134 1 0.000635 -0.00317256 -0.004445 -0.0081 3.09963e-17 -5.36693e-17 2.16e-11 1.57928e-24 8.40366e-36
3221 1 0.000635 -0.0020727 -0.00381 -0.0081 -6.77626e-21 0 2.16e-11 2.10571e-24 0
3307 1 0.000635 -0.000972852 -0.004445 -0.0081 0 -4.77053e-17 2.16e-11 1.05285e-24 5.17148e-36
3394 1 0.000635 0.000127 -0.00381 -0.0081 0 0 2.16e-11 1.05285e-24 0
3480 1 0.000635 0.00122685 -0.004445 -0.0081 0 -4.77053e-17 2.16e-11 1.05285e-24 5.17148e-36
3567 1 0.000635 0.0023267 -0.00381 -0.0081 0 0 2.16e-11 2.10571e-24 0
3653 1 0.000635 0.00342656 -0.004445 -0.0081 3.09811e-17 -5.36701e-17 2.16e-11 1.05285e-24 8.40366e-36
3740 1 0.000635 0.00452641 -0.00381 -0.0081 4.13217e-17 7.70372e-34 2.16e-11 0 1.29287e-35
3826 1 0.000635 0.00562626 -0.004445 -0.0081 -1.44597e-16 -5.9629e-17 2.16e-11 5.26426e-25 3.74932e-35
3912 1 0.000635 0.00672611 -0.00381 -0.0081 8.26298e-17 0 2.16e-11 1.05285e-24 2.06859e-35
3997 1 0.000635 0.00782597 -0.004445 -0.0081 -3.38813e-21 -4.77061e-17 2.16e-11 1.05285e-24 5.17148e-36
4083 1 0.000635 0.00892582 -0.00381 -0.0081 -6.77626e-21 0 2.16e-11 1.05285e-24 0
4168 1 0.000635 0.0100257 -0.004445 -0.0081 8.38395e-09 1.45214e-08 -4.71025e-07 4.20028e-12 6.01185e-35
4254 1 0.000635 0.0111255 -0.00381 -0.0081 5.00508e-08 -5.59166e-09 -3.06256e-06 8.96878e-11 4.65433e-35
4338 1 0.000635 0.0122254 -0.004445 -0.0081 7.57861e-05 -6.14363e-05 1.30516e-05 8.11317e-10 7.64293e-11
2450 1 0.000635 -0.0119714 -0.003175 -0.0081 -1.49893e-05 1.14789e-05 9.5908e-06 1.65859e-10 1.96004e-12
2535 1 0.000635 -0.0108715 -0.00254 -0.0081 -9.72689e-08 -1.78368e-09 -3.93825e-06 1.48101e-10 6.33506e-35
2620 1 0.000635 -0.00977167 -0.003175 -0.0081 -1.3427e-16 4.1748e-17 2.16e-11 5.26426e-25 5.81792e-35
2706 1 0.000635 -0.00867182 -0.00254 -0.0081 -7.2301e-17 -5.97417e-18 2.16e-11 0 1.61609e-35
2791 1 0.000635 -0.00757197 -0.003175 -0.0081 1.44602e-16 4.77053e-17 2.16e-11 5.26426e-25 3.55539e-35
2877 1 0.000635 -0.00647211 -0.00254 -0.0081 -1.44605e-16 -1.19365e-17 2.16e-11 0 3.23218e-35
2962 1 0.000635 -0.00537226 -0.003175 -0.0081 1.44604e-16 4.7707e-17 2.16e-11 0 3.55539e-35
3049 1 0.000635 -0.00427241 -0.00254 -0.0081 -1.03284e-16 -1.19373e-17 2.16e-11 5.26426e-25 1.93931e-35
3135 1 0.000635 -0.00317256 -0.003175 -0.0081 3.09963e-17 4.17472e-17 2.16e-11 1.05285e-24 6.46435e-36
3222 1 0.000635 -0.0020727 -0.00254 -0.0081 0 -1.43996e-20 2.16e-11 0 0
3308 1 0.000635 -0.000972852 -0.003175 -0.0081 0 3.57823e-17 2.16e-11 1.05285e-24 3.23218e-36
3395 1 0.000635 0.000127 -0.00254 -0.0081 0 -1.35525e-20 2.16e-11 0 0
3481 1 0.000635 0.00122685 -0.003175 -0.0081 0 3.57823e-17 2.16e-11 1.05285e-24 3.23218e-36
3568 1 0.000635 0.0023267 -0.00254 -0.0081 -6.77626e-21 -1.35525e-20 2.16e-11 0 0
3654 1 0.000635 0.00342656 -0.003175 -0.0081 3.09777e-17 4.17463e-17 2.16e-11 1.05285e-24 6.46435e-36
3741 1 0.000635 0.00452641 -0.00254 -0.0081 4.13115e-17 -1.19382e-17 2.16e-11 5.26426e-25 1.93931e-35
3827 1 0.000635 0.00562626 -0.003175 -0.0081 -1.44595e-16 4.77053e-17 2.16e-11 5.26426e-25 3.55539e-35
3913 1 0.000635 0.00672611 -0.00254 -0.0081 7.23095e-17 -5.97502e-18 2.16e-11 0 1.61609e-35
3998 1 0.000635 0.00782597 -0.003175 -0.0081 0 3.57823e-17 2.16e-11 1.05285e-24 3.23218e-36
4084 1 0.000635 0.00892582 -0.00254 -0.0081 -8.47033e-21 -1.27055e-20 2.16e-11 0 0
4169 1 0.000635 0.0100257 -0.003175 -0.0081 1.3427e-16 4.1748e-17 2.16e-11 5.26426e-25 5.81792e-35
4255 1 0.000635 0.0111255 -0.00254 -0.0081 4.28842e-08 -2.7664e-08 -2.75386e-06 7.26097e-11 6.33506e-35
4339 1 0.000635 0.0122254 -0.003175 -0.0081 5.59157e-05 1.47156e-05 1.11579e-05 1.007e-10 1.16507e-11
2451 1 0.000635 -0.0119714 -0.001905 -0.0081 -1.04565e-05 7.9746e-06 8.52522e-06 1.66159e-10 9.54721e-13
2536 1 0.000635 -0.0108715 -0.00127 -0.0081 -9.64145e-08 1.89864e-10 -3.89679e-06 1.44951e-10 6.33506e-35
2621 1 0.000635 -0.00977167 -0.001905 -0.0081 -1.44592e-16 -1.19229e-17 2.16e-11 5.26426e-25 6.39971e-35
2707 1 0.000635 -0.00867182 -0.00127 -0.0081 -7.2301e-17 5.96909e-18 2.16e-11 5.26426e-25 1.61609e-35
2792 1 0.000635 -0.00757197 -0.001905 -0.0081 1.44605e-16 -1.19229e-17 2.16e-11 0 3.29682e-35
2878 1 0.000635 -0.00647211 -0.00127 -0.0081 -1.44605e-16 1.19331e-17 2.16e-11 0 3.23218e-35
2963 1 0.000635 -0.00537226 -0.001905 -0.0081 1.44602e-16 -1.19246e-17 2.16e-11 0 3.29682e-35
3050 1 0.000635 -0.00427241 -0.00127 -0.0081 -1.13613e-16 5.96993e-18 2.16e-11 0 2.13324e-35
3136 1 0.000635 -0.00317256 -0.001905 -0.0081 4.13081e-17 -1.19229e-17 2.16e-11 0 5.81792e-36
3223 1 0.000635 -0.0020727 -0.00127 -0.0081 0 7.6233e-21 2.16e-11 0 0
3309 1 0.000635 -0.000972852 -0.001905 -0.0081 0 -1.19229e-17 2.16e-11 0 6.46435e-37
3396 1 0.000635 0.000127 -0.00127 -0.0081 0 6.77626e-21 2.16e-11 0 0
3482 1 0.000635 0.00122685 -0.001905 -0.0081 0 -1.19229e-17 2.16e-11 0 6.46435e-37
3569 1 0.000635 0.0023267 -0.00127 -0.0081 -6.77626e-21 6.77626e-21 2.16e-11 0 0
3655 1 0.000635 0.00342656 -0.001905 -0.0081 2.06608e-17 -1.19229e-17 2.16e-11 0 1.93931e-36
3742 1 0.000635 0.00452641 -0.00127 -0.0081 4.13149e-17 1.19331e-17 2.16e-11 5.26426e-25 1.93931e-35
3828 1 0.000635 0.00562626 -0.001905 -0.0081 -1.44599e-16 -1.19229e-17 2.16e-11 0 3.29682e-35
3914 1 0.000635 0.00672611 -0.00127 -0.0081 7.23078e-17 5.96909e-18 2.16e-11 5.26426e-25 1.61609e-35
3999 1 0.000635 0.00782597 -0.001905 -0.0081 -6.77626e-21 -1.19229e-17 2.16e-11 5.26426e-25 6.46435e-37
4085 1 0.000635 0.00892582 -0.00127 -0.0081 -6.77626e-21 6.77626e-21 2.16e-11 0 0
4170 1 0.000635 0.0100257 -0.001905 -0.0081 1.44599e-16 -1.19229e-17 2.16e-11 0 6.39971e-35
4256 1 0.000635 0.0111255 -0.00127 -0.0081 5.17065e-08 -1.27308e-08 -2.93325e-06 8.18653e-11 6.33506e-35
4340 1 0.000635 0.0122254 -0.001905 -0.0081 2.98832e-05 2.52422e-06 9.51296e-06 8.93362e-11 2.88055e-12
2452 1 0.000635 -0.0119714 -0.000635 -0.0081 -1.18153e-05 2.43656e-06 8.66753e-06 1.65644e-10 5.28622e-13
2622 1 0.000635 -0.00977167 -0.000635 -0.0081 -1.44599e-16 -8.47033e-21 2.16e-11 0 6.33506e-35
2793 1 0.000635 -0.00757197 -0.000635 -0.0081 1.44604e-16 -1.19339e-17 2.16e-11 5.26426e-25 3.23218e-35
2964 1 0.000635 -0.00537226 -0.000635 -0.0081 1.44604e-16 -1.19365e-17 2.16e-11 0 3.23218e-35
3137 1 0.000635 -0.00317256 -0.000635 -0.0081 4.13183e-17 -8.47033e-21 2.16e-11 0 5.17148e-36
3310 1 0.000635 -0.000972852 -0.000635 -0.0081 0 -8.47033e-21 2.16e-11 0 0
3483 1 0.000635 0.00122685 -0.000635 -0.0081 0 -8.47033e-21 2.16e-11 0 0
3656 1 0.000635 0.00342656 -0.000635 -0.0081 3.09811e-17 -5.97078e-18 2.16e-11 5.26426e-25 3.23218e-36
3829 1 0.000635 0.00562626 -0.000635 -0.0081 -1.44597e-16 -1.19339e-17 2.16e-11 5.26426e-25 3.23218e-35
4000 1 0.000635 0.00782597 -0.000635 -0.0081 0 -8.47033e-21 2.16e-11 0 0
4171 1 0.000635 0.0100257 -0.000635 -0.0081 1.44599e-16 -8.47033e-21 2.16e-11 0 6.33506e-35
4341 1 0.000635 0.0122254 -0.000635 -0.0081 1.44826e-05 7.81632e-07 7.38078e-06 9.60936e-11 6.85182e-13
2453 1 0.000635 -0.0119714 0.000635 -0.0081 -1.18153e-05 -2.43656e-06 8.66753e-06 1.65644e-10 5.28622e-13
2537 1 0.000635 -0.0108715 0 -0.0081 -9.564e-08 -3.03289e-17 -3.87777e-06 1.43516e-10 6.33506e-35
2623 1 0.000635 -0.00977167 0.000635 -0.0081 -1.44599e-16 -3.38813e-21 2.16e-11 0 6.33506e-35
2708 1 0.000635 -0.00867182 0 -0.0081 -8.26247e-17 5.92923e-21 2.16e-11 0 2.06859e-35
2794 1 0.000635 -0.00757197 0.000635 -0.0081 1.44602e-16 -3.38813e-21 2.16e-11 0 3.23218e-35
2879 1 0.000635 -0.00647211 0 -0.0081 -1.44605e-16 5.0822e-21 2.16e-11 0 3.23218e-35
2965 1 0.000635 -0.00537226 0.000635 -0.0081 1.44602e-16 -3.38813e-21 2.16e-11 0 3.23218e-35
3051 1 0.000635 -0.00427241 0 -0.0081 -1.03282e-16 5.92923e-21 2.16e-11 0 1.68073e-35
3138 1 0.000635 -0.00317256 0.000635 -0.0081 4.13149e-17 -3.38813e-21 2.16e-11 0 5.17148e-36
3224 1 0.000635 -0.0020727 0 -0.0081 0 6.77626e-21 2.16e-11 0 0
3311 1 0.000635 -0.000972852 0.000635 -0.0081 0 -3.38813e-21 2.16e-11 0 0
3397 1 0.000635 0.000127 0 -0.0081 0 6.77626e-21 2.16e-11 0 0
3484 1 0.000635 0.00122685 0.000635 -0.0081 0 -3.38813e-21 2.16e-11 0 0
3570 1 0.000635 0.0023267 0 -0.0081 -3.38813e-21 5.0822e-21 2.16e-11 5.26426e-25 0
3657 1 0.000635 0.00342656 0.000635 -0.0081 2.06574e-17 -3.38813e-21 2.16e-11 0 1.29287e-36
3743 1 0.000635 0.00452641 0 -0.0081 4.13132e-17 5.92923e-21 2.16e-11 0 1.29287e-35
3830 1 0.000635 0.00562626 0.000635 -0.0081 -1.44595e-16 -3.38813e-21 2.16e-11 0 3.23218e-35
3915 1 0.000635 0.00672611 0 -0.0081 8.26315e-17 5.92923e-21 2.16e-11 0 2.06859e-35
4001 1 0.000635 0.00782597 0.000635 -0.0081 0 -3.38813e-21 2.16e-11 0 0
4086 1 0.000635 0.00892582 0 -0.0081 -6.77626e-21 6.77626e-21 2.16e-11 0 0
4172 1 0.000635 0.0100257 0.000635 -0.0081 1.44599e-16 -3.38813e-21 2.16e-11 0 6.33506e-35
4257 1 0.000635 0.0111255 0 -0.0081 5.54583e-08 7.5496e-18 -3.00323e-06 8.57275e-11 6.33506e-35
4342 1 0.000635 0.0122254 0.000635 -0.0081 1.44826e-05 -7.81632e-07 7.38078e-06 9.60936e-11 6.85182e-13
2454 1 0.000635 -0.0119714 0.001905 -0.0081 -1.04565e-05 -7.9746e-06 8.52522e-06 1.66159e-10 9.54721e-13
2538 1 0.000635 -0.0108715 0.00127 -0.0081 -9.64145e-08 -1.89864e-10 -3.89679e-06 1.44951e-10 6.33506e-35
2624 1 0.000635 -0.00977167 0.001905 -0.0081 -1.44595e-16 1.19221e-17 2.16e-11 0 6.39971e-35
2709 1 0.000635 -0.00867182 0.00127 -0.0081 -8.26264e-17 0 2.16e-11 0 2.06859e-35
2795 1 0.000635 -0.00757197 0.001905 -0.0081 1.44604e-16 1.19221e-17 2.16e-11 0 3.29682e-35
2880 1 0.000635 -0.00647211 0.00127 -0.0081 -1.44605e-16 0 2.16e-11 0 3.23218e-35
2966 1 0.000635 -0.00537226 0.001905 -0.0081 1.44604e-16 1.19238e-17 2.16e-11 0 3.29682e-35
3052 1 0.000635 -0.00427241 0.00127 -0.0081 -1.0328e-16 0 2.16e-11 0 1.68073e-35
3139 1 0.000635 -0.00317256 0.001905 -0.0081 4.13115e-17 1.19229e-17 2.16e-11 0 5.81792e-36
3225 1 0.000635 -0.0020727 0.00127 -0.0081 0 0 2.16e-11 0 0
3312 1 0.000635 -0.000972852 0.001905 -0.0081 0 1.19212e-17 2.16e-11 0 6.46435e-37
3398 1 0.000635 0.000127 0.00127 -0.0081 0 0 2.16e-11 0 0
3485 1 0.000635 0.00122685 0.001905 -0.0081 0 1.19212e-17 2.16e-11 0 6.46435e-37
3571 1 0.000635 0.0023267 0.00127 -0.0081 -6.77626e-21 0 2.16e-11 0 0
3658 1 0.000635 0.00342656 0.001905 -0.0081 2.06591e-17 1.19221e-17 2.16e-11 0 1.93931e-36
3744 1 0.000635 0.00452641 0.00127 -0.0081 4.13115e-17 0 2.16e-11 0 1.29287e-35
3831 1 0.000635 0.00562626 0.001905 -0.0081 -1.44597e-16 1.19221e-17 2.16e-11 0 3.29682e-35
3916 1 0.000635 0.00672611 0.00127 -0.0081 8.26331e-17 0 2.16e-11 0 2.06859e-35
4002 1 0.000635 0.00782597 0.001905 -0.0081 -3.38813e-21 1.19221e-17 2.16e-11 0 6.46435e-37
4087 1 0.000635 0.00892582 0.00127 -0.0081 -6.77626e-21 0 2.16e-11 0 0
4173 1 0.000635 0.0100257 0.001905 -0.0081 1.44599e-16 1.19212e-17 2.16e-11 0 6.39971e-35
4258 1 0.000635 0.0111255 0.00127 -0.0081 5.17065e-08 1.27308e-08 -2.93325e-06 8.18653e-11 6.33506e-35
4343 1 0.000635 0.0122254 0.001905 -0.0081 2.98832e-05 -2.52422e-06 9.51296e-06 8.93362e-11 2.88055e-12
2455 1 0.000635 -0.0119714 0.003175 -0.0081 -1.49893e-05 -1.14789e-05 9.5908e-06 1.65859e-10 1.96004e-12
2539 1 0.000635 -0.0108715 0.00254 -0.0081 -9.72689e-08 1.78368e-09 -3.93825e-06 1.48101e-10 6.33506e-35
2625 1 0.000635 -0.00977167 0.003175 -0.0081 -1.3427e-16 -4.1748e-17 2.16e-11 5.26426e-25 5.81792e-35
2710 1 0.000635 -0.00867182 0.00254 -0.0081 -7.2301e-17 5.97417e-18 2.16e-11 0 1.61609e-35
2796 1 0.000635 -0.00757197 0.003175 -0.0081 1.44602e-16 -4.77053e-17 2.16e-11 5.26426e-25 3.55539e-35
2881 1 0.000635 -0.00647211 0.00254 -0.0081 -1.44605e-16 1.19365e-17 2.16e-11 0 3.23218e-35
2967 1 0.000635 -0.00537226 0.003175 -0.0081 1.44604e-16 -4.7707e-17 2.16e-11 0 3.55539e-35
3053 1 0.000635 -0.00427241 0.00254 -0.0081 -1.03284e-16 1.19373e-17 2.16e-11 5.26426e-25 1.93931e-35
3140 1 0.000635 -0.00317256 0.003175 -0.0081 3.09963e-17 -4.17472e-17 2.16e-11 1.05285e-24 6.46435e-36
3226 1 0.000635 -0.0020727 0.00254 -0.0081 0 1.43996e-20 2.16e-11 0 0
3313 1 0.000635 -0.000972852 0.003175 -0.0081 0 -3.57823e-17 2.16e-11 1.05285e-24 3.23218e-36
3399 1 0.000635 0.000127 0.00254 -0.0081 0 1.35525e-20 2.16e-11 0 0
3486 1 0.000635 0.00122685 0.003175 -0.0081 0 -3.57823e-17 2.16e-11 1.05285e-24 3.23218e-36
3572 1 0.000635 0.0023267 0.00254 -0.0081 -6.77626e-21 1.35525e-20 2.16e-11 0 0
3659 1 0.000635 0.00342656 0.003175 -0.0081 3.09777e-17 -4.17463e-17 2.16e-11 1.05285e-24 6.46435e-36
3745 1 0.000635 0.00452641 0.00254 -0.0081 4.13115e-17 1.19382e-17 2.16e-11 5.26426e-25 1.93931e-35
3832 1 0.000635 0.00562626 0.003175 -0.0081 -1.44595e-16 -4.77053e-17 2.16e-11 5.26426e-25 3.55539e-35
3917 1 0.000635 0.00672611 0.00254 -0.0081 7.23095e-17 5.97502e-18 2.16e-11 0 1.61609e-35
4003 1 0.000635 0.00782597 0.003175 -0.0081 0 -3.57823e-17 2.16e-11 1.05285e-24 3.23218e-36
4088 1 0.000635 0.00892582 0.00254 -0.0081 -8.47033e-21 1.27055e-20 2.16e-11 0 0
4174 1 0.000635 0.0100257 0.003175 -0.0081 1.3427e-16 -4.1748e-17 2.16e-11 5.26426e-25 5.81792e-35
4259 1 0.000635 0.0111255 0.00254 -0.0081 4.28842e-08 2.7664e-08 -2.75386e-06 7.26097e-11 6.33506e-35
4344 1 0.000635 0.0122254 0.003175 -0.0081 5.59157e-05 -1.47156e-05 1.11579e-05 1.007e-10 1.16507e-11
2456 1 0.000635 -0.0119714 0.004445 -0.0081 -0.000126815 7.43194e-05 3.31604e-05 1.52139e-10 6.8789e-11
2540 1 0.000635 -0.0108715 0.00381 -0.0081 -7.85682e-08 4.17099e-08 -3.76863e-06 1.35671e-10 4.65433e-35
2626 1 0.000635 -0.00977167 0.004445 -0.0081 -2.08296e-09 -3.60779e-09 -3.23425e-07 1.97776e-12 6.01185e-35
2711 1 0.000635 -0.00867182 0.00381 -0.0081 -8.2623e-17 0 2.16e-11 1.05285e-24 2.06859e-35
2797 1 0.000635 -0.00757197 0.004445 -0.0081 1.44602e-16 5.96282e-17 2.16e-11 5.26426e-25 3.74932e-35
2882 1 0.000635 -0.00647211 0.00381 -0.0081 -1.44605e-16 0 2.16e-11 0 3.23218e-35
2968 1 0.000635 -0.00537226 0.004445 -0.0081 1.44604e-16 5.9629e-17 2.16e-11 5.26426e-25 3.74932e-35
3054 1 0.000635 -0.00427241 0.00381 -0.0081 -1.03291e-16 0 2.16e-11 0 1.68073e-35
3141 1 0.000635 -0.00317256 0.004445 -0.0081 3.09963e-17 5.36693e-17 2.16e-11 1.57928e-24 8.40366e-36
3227 1 0.000635 -0.0020727 0.00381 -0.0081 -6.77626e-21 0 2.16e-11 2.10571e-24 0
3314 1 0.000635 -0.000972852 0.004445 -0.0081 0 4.77053e-17 2.16e-11 1.05285e-24 5.17148e-36
3400 1 0.000635 0.000127 0.00381 -0.0081 0 0 2.16e-11 1.05285e-24 0
3487 1 0.000635 0.00122685 0.004445 -0.0081 0 4.77053e-17 2.16e-11 1.05285e-24 5.17148e-36
3573 1 0.000635 0.0023267 0.00381 -0.0081 0 0 2.16e-11 2.10571e-24 0
3660 1 0.000635 0.00342656 0.004445 -0.0081 3.09811e-17 5.36701e-17 2.16e-11 1.05285e-24 8.40366e-36
3746 1 0.000635 0.00452641 0.00381 -0.0081 4.13217e-17 0 2.16e-11 0 1.29287e-35
3833 1 0.000635 0.00562626 0.004445 -0.0081 -1.44597e-16 5.9629e-17 2.16e-11 5.26426e-25 3.74932e-35
3918 1 0.000635 0.00672611 0.00381 -0.0081 8.26298e-17 0 2.16e-11 1.05285e-24 2.06859e-35
4004 1 0.000635 0.00782597 0.004445 -0.0081 -3.38813e-21 4.77061e-17 2.16e-11 1.05285e-24 5.17148e-36
4089 1 0.000635 0.00892582 0.00381 -0.0081 -6.77626e-21 0 2.16e-11 1.05285e-24 0
4175 1 0.000635 0.0100257 0.004445 -0.0081 8.38395e-09 -1.45214e-08 -4.71025e-07 4.20028e-12 6.01185e-35
4260 1 0.000635 0.0111255 0.00381 -0.0081 5.00508e-08 5.59166e-09 -3.06256e-06 8.96878e-11 4.65433e-35
4345 1 0.000635 0.0122254 0.004445 -0.0081 7.57861e-05 6.14363e-05 1.30516e-05 8.11317e-10 7.64293e-11
2541 1 0.000635 -0.0108715 0.00508 -0.0081 -7.42939e-06 4.3482e-06 -2.38269e-06 1.00153e-10 3.28124e-13
2712 1 0.000635 -0.00867182 0.00508 -0.0081 -6.19774e-17 2.3845e-17 2.16e-11 0 1.42216e-35
2883 1 0.000635 -0.00647211 0.00508 -0.0081 -1.44605e-16 2.38442e-17 2.16e-11 0 3.49075e-35
3055 1 0.000635 -0.00427241 0.00508 -0.0081 -1.03287e-16 2.38433e-17 2.16e-11 1.57928e-24 2.45645e-35
3228 1 0.000635 -0.0020727 0.00508 -0.0081 -3.38813e-21 2.38442e-17 2.16e-11 0 2.58574e-36
3401 1 0.000635 0.000127 0.00508 -0.0081 0 2.38442e-17 2.16e-11 0 2.58574e-36
3574 1 0.000635 0.0023267 0.00508 -0.0081 -3.38813e-21 2.38459e-17 2.16e-11 0 2.58574e-36
3747 1 0.000635 0.00452641 0.00508 -0.0081 4.13081e-17 2.38433e-17 2.16e-11 5.26426e-25 2.84431e-35
3919 1 0.000635 0.00672611 0.00508 -0.0081 6.19859e-17 2.38442e-17 2.16e-11 0 1.42216e-35
4090 1 0.000635 0.00892582 0.00508 -0.0081 -8.47033e-21 2.3845e-17 2.16e-11 0 2.58574e-36
4261 1 0.000635 0.0111255 0.00508 -0.0081 -3.73705e-05 -2.1484e-05 -7.13161e-06 3.80452e-10 8.54956e-12
2542 1 0.000635 -0.0108715 0.00635 -0.0081 -3.5201e-05 3.85714e-05 2.51329e-06 5.42877e-11 9.93754e-12
2627 1 0.000635 -0.00977167 0.005715 -0.0081 -1.59141e-09 -2.7564e-09 -6.25313e-07 7.39574e-12 6.85221e-35
2713 1 0.000635 -0.00867182 0.00635 -0.0081 -3.45953e-10 -5.99208e-10 -2.26538e-07 9.70108e-13 2.9736e-35
2798 1 0.000635 -0.00757197 0.005715 -0.0081 1.44602e-16 -4.76832e-17 2.16e-11 0 3.74932e-35
2884 1 0.000635 -0.00647211 0.00635 -0.0081 -1.44609e-16 -7.15816e-17 2.16e-11 0 4.0079e-35
2969 1 0.000635 -0.00537226 0.005715 -0.0081 1.44604e-16 -4.76841e-17 2.16e-11 5.26426e-25 3.74932e-35
3056 1 0.000635 -0.00427241 0.00635 -0.0081 -1.13621e-16 -7.75431e-17 2.16e-11 0 2.90896e-35
3142 1 0.000635 -0.00317256 0.005715 -0.0081 2.0671e-17 -4.76858e-17 2.16e-11 5.26426e-25 6.46435e-36
3229 1 0.000635 -0.0020727 0.00635 -0.0081 -5.0822e-21 -7.15842e-17 2.16e-11 0 1.0343e-35
3315 1 0.000635 -0.000972852 0.005715 -0.0081 0 -4.76866e-17 2.16e-11 0 5.17148e-36
3402 1 0.000635 0.000127 0.00635 -0.0081 0 -7.1585e-17 2.16e-11 0 1.0343e-35
3488 1 0.000635 0.00122685 0.005715 -0.0081 0 -4.76866e-17 2.16e-11 0 5.17148e-36
3575 1 0.000635 0.0023267 0.00635 -0.0081 0 -7.15842e-17 2.16e-11 0 1.0343e-35
3661 1 0.000635 0.00342656 0.005715 -0.0081 4.13098e-17 -4.76858e-17 2.16e-11 0 1.0343e-35
3748 1 0.000635 0.00452641 0.00635 -0.0081 4.13183e-17 -7.15816e-17 2.16e-11 0 2.06859e-35
3834 1 0.000635 0.00562626 0.005715 -0.0081 -1.44597e-16 -4.76841e-17 2.16e-11 0 3.74932e-35
3920 1 0.000635 0.00672611 0.00635 -0.0081 6.19774e-17 -7.15825e-17 2.16e-11 0 2.9736e-35
4005 1 0.000635 0.00782597 0.005715 -0.0081 -6.77626e-21 -4.76849e-17 2.16e-11 0 5.17148e-36
4091 1 0.000635 0.00892582 0.00635 -0.0081 -4.33797e-09 7.51359e-09 -8.86649e-07 1.48818e-11 1.0343e-35
4176 1 0.000635 0.0100257 0.005715 -0.0081 -1.27136e-08 2.20205e-08 -2.51548e-06 1.21139e-10 6.85221e-35
4262 1 0.000635 0.0111255 0.00635 -0.0081 -0.000126233 3.91567e-05 -1.46567e-05 5.44373e-10 5.45555e-11
2543 1 0.000635 -0.0108714 0.00762 -0.00807431 -5.50233e-11 8.06362e-11 -1.79058e-09 2.20839e-10 2.5272e-12
2628 1 0.000635 -0.00977167 0.006985 -0.0081 -6.415e-06 3.66766e-06 -1.98238e-06 5.32803e-11 2.43504e-13
2714 1 0.000635 -0.00867182 0.00762 -0.0081 -6.2192e-08 1.09743e-08 -2.74107e-06 7.15405e-11 2.9736e-35
2799 1 0.000635 -0.00757197 0.006985 -0.0081 1.44605e-16 2.38958e-17 2.16e-11 0 4.0079e-35
2885 1 0.000635 -0.00647211 0.00762 -0.0081 -1.44609e-16 -2.38967e-17 2.16e-11 0 4.0079e-35
2970 1 0.000635 -0.00537226 0.006985 -0.0081 1.44605e-16 2.38958e-17 2.16e-11 0 4.0079e-35