ITEM: TIMESTEP
1120000
ITEM: NUMBER OF ATOMS
6793
ITEM: BOX BOUNDS ff ff ff
-8.9999999999999997e-02 8.9999999999999997e-02
-8.9999999999999997e-02 8.9999999999999997e-02
-4.0000000000000001e-02 4.0000000000000001e-02
ITEM: ATOMS id type radius x y z fx fy fz c_bendingE c_stretchingE
3385 1 0.000635 0.000121041 -0.0152081 -0.011715 1.19681e-10 -1.18109e-10 -3.53105e-10 1.80886e-09 6.83732e-11
3213 1 0.000635 -0.00207125 -0.0139545 -0.0119073 9.81787e-11 1.19339e-10 3.62965e-10 2.94283e-09 3.22104e-10
3299 1 0.000635 -0.000974483 -0.0145902 -0.0118804 1.21262e-10 1.36807e-10 3.93119e-10 2.77376e-09 9.84962e-11
3386 1 0.000635 0.000126033 -0.0139659 -0.0119847 1.20141e-10 -2.62148e-10 -1.61436e-09 2.08155e-09 3.37865e-11
3472 1 0.000635 0.00121665 -0.0145688 -0.011739 1.16654e-10 -1.45605e-10 -6.98215e-10 9.1611e-10 1.23171e-10
3559 1 0.000635 0.00230828 -0.0139211 -0.0117374 -5.11416e-12 7.02702e-11 1.44073e-10 3.10086e-10 2.41522e-10
3732 1 0.000635 0.00449131 -0.0138878 -0.011487 1.17044e-10 -2.46989e-10 -7.89297e-10 8.35967e-11 4.25422e-11
3041 1 0.000635 -0.00426524 -0.012684 -0.0119021 2.26315e-11 9.9854e-11 4.80066e-10 1.76426e-09 1.14771e-10
3127 1 0.000635 -0.0031674 -0.0133185 -0.0119048 -3.73637e-12 5.19903e-11 2.88023e-10 2.1404e-09 2.9713e-10
3214 1 0.000635 -0.0020727 -0.0127 -0.012096 -9.2503e-05 2.8932e-05 -4.00388e-06 2.50652e-09 6.95007e-11
3300 1 0.000635 -0.000973332 -0.0133351 -0.0120724 3.79007e-11 -1.11172e-10 -1.34553e-09 1.88347e-09 3.8329e-11
3387 1 0.000635 0.000127 -0.0127 -0.012096 -4.19368e-05 -5.98384e-05 2.72438e-06 1.85931e-10 1.64764e-11
3473 1 0.000635 0.00122596 -0.0133338 -0.0120413 2.82381e-11 -1.97342e-11 -2.16476e-10 2.21996e-10 9.46679e-11
3560 1 0.000635 0.0023267 -0.0127 -0.012096 5.62915e-05 -0.000253205 8.99601e-05 3.19248e-10 2.30188e-10
3646 1 0.000635 0.00341221 -0.0133026 -0.0118164 -5.7035e-12 8.25123e-11 2.17453e-10 2.95802e-10 1.97327e-10
3733 1 0.000635 0.00451734 -0.0126812 -0.0118815 1.27684e-10 -2.91108e-10 -1.17073e-09 2.10647e-10 3.19838e-11
3819 1 0.000635 0.00559998 -0.0132778 -0.0115868 1.0488e-11 1.38063e-11 1.2313e-10 7.14606e-11 2.1359e-11
3905 1 0.000635 0.00670588 -0.0126587 -0.0116608 -8.3422e-11 2.71126e-10 1.10731e-09 8.87007e-11 8.79914e-12
2870 1 0.000635 -0.00646303 -0.0114159 -0.0119065 7.64619e-12 5.36905e-11 3.0473e-10 1.37846e-09 4.88205e-11
2955 1 0.000635 -0.00536384 -0.0120498 -0.0119027 3.71416e-11 8.32137e-11 4.37654e-10 1.52788e-09 5.30572e-11
3042 1 0.000635 -0.00427241 -0.01143 -0.012096 1.45315e-06 6.00505e-05 -1.34958e-05 1.32556e-09 1.67905e-11
3128 1 0.000635 -0.00317256 -0.012065 -0.012096 -3.52747e-05 9.01762e-05 -1.62104e-05 1.69753e-09 6.38498e-11
3215 1 0.000635 -0.0020727 -0.01143 -0.012096 3.25524e-08 -7.8559e-08 -3.37464e-06 1.08402e-10 5.17148e-36
3301 1 0.000635 -0.000972852 -0.012065 -0.012096 3.93411e-08 -1.97691e-05 -2.87155e-06 1.01303e-10 1.75619e-12
3388 1 0.000635 0.000127 -0.01143 -0.012096 8.51967e-09 -1.69407e-21 -9.80581e-07 1.82079e-11 5.17148e-36
3474 1 0.000635 0.00122685 -0.012065 -0.012096 -3.31978e-08 -8.3488e-07 -3.87067e-06 2.1364e-10 1.64455e-15
3561 1 0.000635 0.0023267 -0.01143 -0.012096 1.1038e-07 -8.96305e-08 -5.04595e-06 2.60804e-10 5.17148e-36
3647 1 0.000635 0.00342656 -0.012065 -0.012096 4.92456e-05 3.42545e-05 1.64899e-06 2.44841e-10 3.27039e-11
3734 1 0.000635 0.00452641 -0.01143 -0.012096 2.27649e-05 1.48269e-05 3.48031e-06 1.7577e-10 6.70889e-12
3820 1 0.000635 0.00561978 -0.0120523 -0.0119189 -3.1928e-11 9.30155e-11 5.18706e-10 1.60988e-10 7.48427e-12
3906 1 0.000635 0.00672136 -0.0114213 -0.0119473 7.34783e-12 -1.67695e-11 -6.02725e-11 1.36361e-10 2.00603e-12
3991 1 0.000635 0.00781115 -0.0120377 -0.0117341 -1.26998e-11 -4.99532e-11 1.25198e-11 1.42225e-09 8.40551e-11
4077 1 0.000635 0.0089117 -0.0114035 -0.0117554 -2.74231e-11 -3.50851e-11 2.7278e-11 1.341e-09 8.69991e-12
2785 1 0.000635 -0.00756253 -0.0107822 -0.011912 3.94777e-11 1.00873e-10 5.73144e-10 1.28297e-09 7.32722e-11
2956 1 0.000635 -0.00537226 -0.010795 -0.012096 2.94089e-05 3.63704e-05 -1.1371e-05 1.11115e-09 7.70874e-12
3129 1 0.000635 -0.00317256 -0.010795 -0.012096 -6.04657e-09 -6.84228e-08 -3.39375e-06 1.09622e-10 6.46435e-36
3302 1 0.000635 -0.000972852 -0.010795 -0.012096 4.22844e-09 0 -2.08047e-07 8.18539e-13 5.17148e-36
3475 1 0.000635 0.00122685 -0.010795 -0.012096 7.84285e-09 0 -4.82026e-07 4.39444e-12 5.17148e-36
3648 1 0.000635 0.00342656 -0.010795 -0.012096 9.255e-08 -5.90318e-08 -4.02976e-06 1.63277e-10 1.0343e-35
3821 1 0.000635 0.00562626 -0.010795 -0.012096 1.24983e-05 6.20894e-06 3.60141e-06 1.22412e-10 1.76641e-12
3992 1 0.000635 0.00782296 -0.01079 -0.0119784 -5.2415e-11 9.16202e-11 7.45247e-10 7.09865e-10 5.02091e-11
4163 1 0.000635 0.00995087 -0.0107199 -0.0114989 -2.20379e-10 6.34966e-11 2.34942e-10 1.53741e-09 1.99301e-11
2445 1 0.000635 -0.011903 -0.00944183 -0.0114474 -3.91869e-11 -1.69647e-10 2.8786e-10 2.00001e-09 3.48391e-10
2615 1 0.000635 -0.00976086 -0.00951335 -0.0119131 3.21073e-11 5.55039e-13 1.83195e-10 1.34408e-09 1.68184e-10
2700 1 0.000635 -0.00866201 -0.0101482 -0.0119159 9.43457e-11 1.15966e-10 7.49569e-10 1.24797e-09 1.10472e-10
2786 1 0.000635 -0.00757197 -0.009525 -0.012096 7.14809e-05 3.85871e-06 -8.49172e-06 8.21833e-10 3.79607e-11
2871 1 0.000635 -0.00647211 -0.01016 -0.012096 5.20913e-05 1.82753e-05 -9.73965e-06 9.59527e-10 1.7742e-11
2957 1 0.000635 -0.00537226 -0.009525 -0.012096 -4.62988e-08 -4.84909e-08 -3.32994e-06 1.05589e-10 3.74932e-35
3043 1 0.000635 -0.00427241 -0.01016 -0.012096 -2.96489e-08 -5.82855e-08 -3.38352e-06 1.08976e-10 2.71503e-35
3130 1 0.000635 -0.00317256 -0.009525 -0.012096 2.0671e-17 0 2.16e-11 1.05285e-24 6.46435e-36
3216 1 0.000635 -0.0020727 -0.01016 -0.012096 -6.77626e-21 0 2.16e-11 0 5.17148e-36
3303 1 0.000635 -0.000972852 -0.009525 -0.012096 0 0 2.16e-11 0 5.17148e-36
3389 1 0.000635 0.000127 -0.01016 -0.012096 0 0 2.16e-11 0 5.17148e-36
3476 1 0.000635 0.00122685 -0.009525 -0.012096 0 0 2.16e-11 0 5.17148e-36
3562 1 0.000635 0.0023267 -0.01016 -0.012096 0 0 2.16e-11 0 5.17148e-36
3649 1 0.000635 0.00342656 -0.009525 -0.012096 4.13115e-17 0 2.16e-11 0 1.0343e-35
3735 1 0.000635 0.00452641 -0.01016 -0.012096 5.72344e-08 -3.95243e-08 -3.20402e-06 1.00961e-10 3.10289e-35
3822 1 0.000635 0.00562626 -0.009525 -0.012096 4.47968e-08 -2.14351e-08 -2.59873e-06 6.67664e-11 3.74932e-35
3907 1 0.000635 0.00672611 -0.01016 -0.012096 1.74823e-05 -1.12597e-05 4.54075e-06 9.87673e-11 1.87488e-12
3993 1 0.000635 0.00782597 -0.009525 -0.012096 9.09742e-06 -3.17117e-05 2.88754e-06 2.83576e-10 3.67302e-12
4078 1 0.000635 0.00892362 -0.0101545 -0.0119854 4.60716e-11 -7.94052e-11 -5.53934e-10 1.36972e-09 6.09585e-11
4164 1 0.000635 0.0100105 -0.00950549 -0.011865 6.31328e-13 -3.16562e-11 -1.05819e-10 1.24716e-09 1.18221e-10
2277 1 0.000635 -0.0141335 -0.00824071 -0.0115578 -1.83152e-11 1.80504e-10 5.64259e-10 3.04248e-09 1.01159e-10
2361 1 0.000635 -0.0130182 -0.00884192 -0.0115029 -9.67394e-11 -1.18025e-10 3.73404e-10 3.91729e-09 1.40297e-10
2446 1 0.000635 -0.011961 -0.00824889 -0.0118811 2.26479e-10 3.79285e-10 2.20394e-09 2.15159e-09 1.80194e-11
2530 1 0.000635 -0.0108601 -0.00888043 -0.0119032 -1.26627e-10 -1.74553e-10 -3.96773e-10 1.78527e-09 5.93135e-11
2616 1 0.000635 -0.00977167 -0.008255 -0.012096 -1.70065e-05 -8.09779e-05 1.47606e-05 4.99994e-10 3.78347e-11
2701 1 0.000635 -0.00867182 -0.00889 -0.012096 9.03306e-05 -8.43887e-06 -8.03872e-06 6.69382e-10 6.68811e-11
2787 1 0.000635 -0.00757197 -0.008255 -0.012096 -6.24832e-08 -3.57902e-08 -3.23804e-06 9.97591e-11 4.0079e-35
2872 1 0.000635 -0.00647211 -0.00889 -0.012096 -5.67838e-08 -4.04217e-08 -3.26117e-06 1.01258e-10 3.74932e-35
2958 1 0.000635 -0.00537226 -0.008255 -0.012096 1.44607e-16 -7.15799e-17 2.16e-11 5.26426e-25 4.0079e-35
3044 1 0.000635 -0.00427241 -0.00889 -0.012096 -1.03289e-16 -4.76841e-17 2.16e-11 1.05285e-24 2.71503e-35
3131 1 0.000635 -0.00317256 -0.008255 -0.012096 3.09912e-17 -7.75431e-17 2.16e-11 5.26426e-25 1.87466e-35
3217 1 0.000635 -0.0020727 -0.00889 -0.012096 -3.38813e-21 -4.76866e-17 2.16e-11 0 5.17148e-36
3304 1 0.000635 -0.000972852 -0.008255 -0.012096 0 -7.15833e-17 2.16e-11 0 1.0343e-35
3390 1 0.000635 0.000127 -0.00889 -0.012096 0 -4.76866e-17 2.16e-11 0 5.17148e-36
3477 1 0.000635 0.00122685 -0.008255 -0.012096 0 -7.15833e-17 2.16e-11 0 1.0343e-35
3563 1 0.000635 0.0023267 -0.00889 -0.012096 0 -4.76858e-17 2.16e-11 0 5.17148e-36
3650 1 0.000635 0.00342656 -0.008255 -0.012096 4.13098e-17 -7.15825e-17 2.16e-11 0 1.0343e-35
3736 1 0.000635 0.00452641 -0.00889 -0.012096 4.13115e-17 -4.76841e-17 2.16e-11 0 3.10289e-35
3823 1 0.000635 0.00562626 -0.008255 -0.012096 -1.446e-16 -7.15791e-17 2.16e-11 0 4.0079e-35
3908 1 0.000635 0.00672611 -0.00889 -0.012096 2.58792e-08 -2.78467e-08 -2.28684e-06 5.06815e-11 1.68073e-35
3994 1 0.000635 0.00782597 -0.008255 -0.012096 -1.47444e-08 -7.13724e-08 -3.0762e-06 9.97747e-11 1.0343e-35
4079 1 0.000635 0.00892582 -0.00889 -0.012096 -7.56228e-05 7.83647e-05 -2.08197e-05 7.13609e-10 4.19298e-11
4165 1 0.000635 0.0100257 -0.008255 -0.012096 0.000258033 3.65141e-05 6.57094e-05 1.00351e-09 3.9872e-10
4250 1 0.000635 0.0110363 -0.00881752 -0.0115704 9.79384e-11 -7.5571e-11 -2.12606e-10 1.31202e-09 3.44277e-11
2278 1 0.000635 -0.0141135 -0.00697311 -0.0115171 4.98435e-10 1.17067e-10 1.93775e-09 2.5747e-09 1.54918e-10
2362 1 0.000635 -0.0130597 -0.00761394 -0.0118222 1.00889e-10 7.72382e-11 8.76945e-10 1.96553e-09 6.81202e-11
2447 1 0.000635 -0.0119687 -0.00698425 -0.0119955 -1.6641e-10 2.86606e-11 -1.19335e-09 2.91027e-10 5.72347e-11
2531 1 0.000635 -0.0108711 -0.00761981 -0.0120563 9.7353e-11 8.91961e-11 1.52285e-09 3.56407e-10 1.00943e-11
2617 1 0.000635 -0.00977167 -0.006985 -0.012096 -6.77199e-06 -3.85915e-06 -2.26877e-06 8.20139e-11 2.68744e-13
2702 1 0.000635 -0.00867182 -0.00762 -0.012096 -7.51324e-08 -1.96378e-08 -3.28765e-06 1.02966e-10 2.9736e-35
2788 1 0.000635 -0.00757197 -0.006985 -0.012096 1.44605e-16 -2.38958e-17 2.16e-11 0 4.0079e-35
2873 1 0.000635 -0.00647211 -0.00762 -0.012096 -1.44609e-16 2.38967e-17 2.16e-11 0 4.0079e-35
2959 1 0.000635 -0.00537226 -0.006985 -0.012096 1.44605e-16 -2.38958e-17 2.16e-11 0 4.0079e-35
3045 1 0.000635 -0.00427241 -0.00762 -0.012096 -1.13623e-16 2.98573e-17 2.16e-11 0 2.90896e-35
3132 1 0.000635 -0.00317256 -0.006985 -0.012096 3.09912e-17 -2.98573e-17 2.16e-11 0 1.87466e-35
3218 1 0.000635 -0.0020727 -0.00762 -0.012096 -1.69407e-21 2.38958e-17 2.16e-11 0 1.0343e-35
3305 1 0.000635 -0.000972852 -0.006985 -0.012096 0 -2.38967e-17 2.16e-11 0 1.0343e-35
3391 1 0.000635 0.000127 -0.00762 -0.012096 0 2.38967e-17 2.16e-11 0 1.0343e-35
3478 1 0.000635 0.00122685 -0.006985 -0.012096 0 -2.38967e-17 2.16e-11 0 1.0343e-35
3564 1 0.000635 0.0023267 -0.00762 -0.012096 0 2.38967e-17 2.16e-11 0 1.0343e-35
3651 1 0.000635 0.00342656 -0.006985 -0.012096 4.13081e-17 -2.38967e-17 2.16e-11 0 1.0343e-35
3737 1 0.000635 0.00452641 -0.00762 -0.012096 4.13217e-17 2.38958e-17 2.16e-11 0 2.06859e-35
3824 1 0.000635 0.00562626 -0.006985 -0.012096 -1.44599e-16 -2.3895e-17 2.16e-11 0 4.0079e-35
3909 1 0.000635 0.00672611 -0.00762 -0.012096 6.19757e-17 2.38958e-17 2.16e-11 0 2.9736e-35
3995 1 0.000635 0.00782597 -0.006985 -0.012096 -6.77626e-21 -2.38967e-17 2.16e-11 0 1.0343e-35
4080 1 0.000635 0.00892582 -0.00762 -0.012096 -6.05714e-08 -1.38474e-07 -5.6102e-06 4.43452e-10 1.0343e-35
4166 1 0.000635 0.0100257 -0.006985 -0.012096 -8.0115e-05 4.58826e-05 -1.58115e-05 7.83053e-10 3.97049e-11
4251 1 0.000635 0.0111192 -0.00761321 -0.0119612 -4.16112e-11 4.26777e-11 2.86674e-10 1.22361e-09 5.86853e-10
4336 1 0.000635 0.012177 -0.00694743 -0.0117168 -5.09412e-11 1.10892e-10 9.43569e-13 1.45379e-09 4.16616e-10
2279 1 0.000635 -0.014082 -0.00570647 -0.0114479 4.97614e-10 5.36076e-11 1.6229e-09 1.20348e-10 9.97844e-11
2363 1 0.000635 -0.0130528 -0.00634478 -0.0118288 -3.1752e-11 7.12721e-11 3.51326e-11 3.36555e-10 8.72269e-11
2448 1 0.000635 -0.0119705 -0.00571543 -0.0120507 6.74908e-12 6.36525e-11 3.94779e-10 2.00597e-10 7.85731e-11
2532 1 0.000635 -0.0108715 -0.00635 -0.012096 -5.62008e-05 -6.36169e-05 6.09619e-06 1.03765e-10 2.65956e-11
2618 1 0.000635 -0.00977167 -0.005715 -0.012096 -2.95247e-09 5.11382e-09 -8.8507e-07 1.4828e-11 6.85221e-35
2703 1 0.000635 -0.00867182 -0.00635 -0.012096 -2.60132e-10 4.50562e-10 -3.4966e-07 2.31132e-12 2.9736e-35
2789 1 0.000635 -0.00757197 -0.005715 -0.012096 1.44602e-16 4.76832e-17 2.16e-11 0 3.74932e-35
2874 1 0.000635 -0.00647211 -0.00635 -0.012096 -1.44609e-16 7.15816e-17 2.16e-11 0 4.0079e-35
2960 1 0.000635 -0.00537226 -0.005715 -0.012096 1.44604e-16 4.76841e-17 2.16e-11 5.26426e-25 3.74932e-35
3046 1 0.000635 -0.00427241 -0.00635 -0.012096 -1.13621e-16 7.75431e-17 2.16e-11 0 2.90896e-35
3133 1 0.000635 -0.00317256 -0.005715 -0.012096 2.0671e-17 4.76858e-17 2.16e-11 5.26426e-25 6.46435e-36
3219 1 0.000635 -0.0020727 -0.00635 -0.012096 -5.0822e-21 7.15842e-17 2.16e-11 0 1.0343e-35
3306 1 0.000635 -0.000972852 -0.005715 -0.012096 0 4.76866e-17 2.16e-11 0 5.17148e-36
3392 1 0.000635 0.000127 -0.00635 -0.012096 0 7.1585e-17 2.16e-11 0 1.0343e-35
3479 1 0.000635 0.00122685 -0.005715 -0.012096 0 4.76866e-17 2.16e-11 0 5.17148e-36
3565 1 0.000635 0.0023267 -0.00635 -0.012096 0 7.15842e-17 2.16e-11 0 1.0343e-35
3652 1 0.000635 0.00342656 -0.005715 -0.012096 4.13098e-17 4.76858e-17 2.16e-11 0 1.0343e-35
3738 1 0.000635 0.00452641 -0.00635 -0.012096 4.13183e-17 7.15816e-17 2.16e-11 0 2.06859e-35
3825 1 0.000635 0.00562626 -0.005715 -0.012096 -1.44597e-16 4.76841e-17 2.16e-11 0 3.74932e-35
3910 1 0.000635 0.00672611 -0.00635 -0.012096 6.19774e-17 7.15825e-17 2.16e-11 0 2.9736e-35
3996 1 0.000635 0.00782597 -0.005715 -0.012096 -6.77626e-21 4.76849e-17 2.16e-11 0 5.17148e-36
4081 1 0.000635 0.00892582 -0.00635 -0.012096 -1.19665e-08 -2.07266e-08 -1.19039e-06 2.68664e-11 1.0343e-35
4167 1 0.000635 0.0100257 -0.005715 -0.012096 -3.67958e-08 -6.37321e-08 -3.35136e-06 2.17337e-10 6.85221e-35
4252 1 0.000635 0.0111255 -0.00635 -0.012096 -0.000238343 -2.37597e-05 -4.60865e-05 1.11404e-09 1.83932e-10
4337 1 0.000635 0.0122219 -0.00571663 -0.0120393 1.67374e-10 -1.48636e-10 -1.73588e-09 1.57276e-09 4.42412e-10
2364 1 0.000635 -0.0130397 -0.00507565 -0.0118118 -1.47884e-10 9.69658e-11 -1.19482e-10 2.67493e-10 2.1112e-10
2533 1 0.000635 -0.0108715 -0.00508 -0.012096 -1.40319e-05 -8.22425e-06 -3.35107e-06 2.045e-10 1.169e-12
2704 1 0.000635 -0.00867182 -0.00508 -0.012096 -6.19774e-17 -2.3845e-17 2.16e-11 0 1.42216e-35
2875 1 0.000635 -0.00647211 -0.00508 -0.012096 -1.44605e-16 -2.38442e-17 2.16e-11 0 3.49075e-35
3047 1 0.000635 -0.00427241 -0.00508 -0.012096 -1.03287e-16 -2.38433e-17 2.16e-11 1.57928e-24 2.45645e-35
3220 1 0.000635 -0.0020727 -0.00508 -0.012096 -3.38813e-21 -2.38442e-17 2.16e-11 0 2.58574e-36
3393 1 0.000635 0.000127 -0.00508 -0.012096 0 -2.38442e-17 2.16e-11 0 2.58574e-36
3566 1 0.000635 0.0023267 -0.00508 -0.012096 -3.38813e-21 -2.38459e-17 2.16e-11 0 2.58574e-36
3739 1 0.000635 0.00452641 -0.00508 -0.012096 4.13081e-17 -2.38433e-17 2.16e-11 5.26426e-25 2.84431e-35
3911 1 0.000635 0.00672611 -0.00508 -0.012096 6.19859e-17 -2.38442e-17 2.16e-11 0 1.42216e-35
4082 1 0.000635 0.00892582 -0.00508 -0.012096 -8.47033e-21 -2.3845e-17 2.16e-11 0 2.58574e-36
4253 1 0.000635 0.0111255 -0.00508 -0.012096 -4.20324e-05 2.40344e-05 -9.84929e-06 7.54506e-10 1.08363e-11
4422 1 0.000635 0.0133041 -0.00507795 -0.0118716 1.54029e-12 1.12582e-11 -3.21408e-10 2.0228e-09 1.22696e-10
2365 1 0.000635 -0.0130238 -0.00380806 -0.0117769 2.53877e-10 4.49603e-11 8.04858e-10 3.50407e-10 8.25714e-11
2449 1 0.000635 -0.0119714 -0.004445 -0.012096 -0.000164208 -0.000116473 5.72148e-05 3.12246e-10 1.31781e-10
2534 1 0.000635 -0.0108715 -0.00381 -0.012096 -1.56003e-07 -8.72496e-08 -5.249e-06 2.65685e-10 4.65433e-35
2619 1 0.000635 -0.00977167 -0.004445 -0.012096 -3.48628e-09 6.03841e-09 -3.9941e-07 3.01691e-12 6.01185e-35
2705 1 0.000635 -0.00867182 -0.00381 -0.012096 -8.2623e-17 0 2.16e-11 1.05285e-24 2.06859e-35
2790 1 0.000635 -0.00757197 -0.004445 -0.012096 1.44602e-16 -5.96282e-17 2.16e-11 5.26426e-25 3.74932e-35
2876 1 0.000635 -0.00647211 -0.00381 -0.012096 -1.44605e-16 0 2.16e-11 0 3.23218e-35
2961 1 0.000635 -0.00537226 -0.004445 -0.012096 1.44604e-16 -5.9629e-17 2.16e-11 5.26426e-25 3.74932e-35
3048 1 0.000635 -0.00427241 -0.00381 -0.012096 -1.03291e-16 0 2.16e-11 0 1.68073e-35
3134 1 0.000635 -0.00317256 -0.004445 -0.012096 3.09963e-17 -5.36693e-17 2.16e-11 1.57928e-24 8.40366e-36
3221 1 0.000635 -0.0020727 -0.00381 -0.012096 -6.77626e-21 0 2.16e-11 2.10571e-24 0
3307 1 0.000635 -0.000972852 -0.004445 -0.012096 0 -4.77053e-17 2.16e-11 1.05285e-24 5.17148e-36
3394 1 0.000635 0.000127 -0.00381 -0.012096 0 0 2.16e-11 1.05285e-24 0
3480 1 0.000635 0.00122685 -0.004445 -0.012096 0 -4.77053e-17 2.16e-11 1.05285e-24 5.17148e-36
3567 1 0.000635 0.0023267 -0.00381 -0.012096 0 0 2.16e-11 2.10571e-24 0
3653 1 0.000635 0.00342656 -0.004445 -0.012096 3.09811e-17 -5.36701e-17 2.16e-11 1.05285e-24 8.40366e-36
3740 1 0.000635 0.00452641 -0.00381 -0.012096 4.13217e-17 7.70372e-34 2.16e-11 0 1.29287e-35
3826 1 0.000635 0.00562626 -0.004445 -0.012096 -1.44597e-16 -5.9629e-17 2.16e-11 5.26426e-25 3.74932e-35
3912 1 0.000635 0.00672611 -0.00381 -0.012096 8.26298e-17 0 2.16e-11 1.05285e-24 2.06859e-35
3997 1 0.000635 0.00782597 -0.004445 -0.012096 -3.38813e-21 -4.77061e-17 2.16e-11 1.05285e-24 5.17148e-36
4083 1 0.000635 0.00892582 -0.00381 -0.012096 -6.77626e-21 0 2.16e-11 1.05285e-24 0
4168 1 0.000635 0.0100257 -0.004445 -0.012096 1.38033e-08 2.39081e-08 -5.00469e-07 4.75046e-12 6.01185e-35
4254 1 0.000635 0.0111255 -0.00381 -0.012096 8.97339e-08 -2.12099e-08 -3.93305e-06 1.47628e-10 4.65433e-35
4338 1 0.000635 0.0122254 -0.004445 -0.012096 0.000117109 -0.000128087 2.69059e-05 1.68604e-09 1.67783e-10
4423 1 0.000635 0.0133079 -0.00380862 -0.0118944 -1.35817e-10 1.9126e-11 4.88888e-10 1.18763e-09 1.13909e-10
4507 1 0.000635 0.0143601 -0.0044418 -0.0115694 -1.87937e-11 -1.50917e-11 -2.36984e-10 1.9511e-09 2.2029e-11
2366 1 0.000635 -0.0130262 -0.00253895 -0.0117843 3.71114e-10 2.77497e-11 1.11094e-09 3.48728e-10 2.40158e-11
2450 1 0.000635 -0.0119714 -0.003175 -0.012096 2.05897e-05 4.55003e-05 2.56258e-06 3.37452e-10 2.01e-11
2535 1 0.000635 -0.0108715 -0.00254 -0.012096 -1.9671e-07 -3.94782e-09 -5.5495e-06 2.97188e-10 6.33506e-35
2620 1 0.000635 -0.00977167 -0.003175 -0.012096 -1.3427e-16 4.1748e-17 2.16e-11 5.26426e-25 5.81792e-35
2706 1 0.000635 -0.00867182 -0.00254 -0.012096 -7.2301e-17 -5.97417e-18 2.16e-11 0 1.61609e-35
2791 1 0.000635 -0.00757197 -0.003175 -0.012096 1.44602e-16 4.77053e-17 2.16e-11 5.26426e-25 3.55539e-35
2877 1 0.000635 -0.00647211 -0.00254 -0.012096 -1.44605e-16 -1.19365e-17 2.16e-11 0 3.23218e-35
2962 1 0.000635 -0.00537226 -0.003175 -0.012096 1.44604e-16 4.7707e-17 2.16e-11 0 3.55539e-35
3049 1 0.000635 -0.00427241 -0.00254 -0.012096 -1.03284e-16 -1.19373e-17 2.16e-11 5.26426e-25 1.93931e-35
3135 1 0.000635 -0.00317256 -0.003175 -0.012096 3.09963e-17 4.17472e-17 2.16e-11 1.05285e-24 6.46435e-36
3222 1 0.000635 -0.0020727 -0.00254 -0.012096 0 -1.43996e-20 2.16e-11 0 0
3308 1 0.000635 -0.000972852 -0.003175 -0.012096 0 3.57823e-17 2.16e-11 1.05285e-24 3.23218e-36
3395 1 0.000635 0.000127 -0.00254 -0.012096 0 -1.35525e-20 2.16e-11 0 0
3481 1 0.000635 0.00122685 -0.003175 -0.012096 0 3.57823e-17 2.16e-11 1.05285e-24 3.23218e-36
3568 1 0.000635 0.0023267 -0.00254 -0.012096 -6.77626e-21 -1.35525e-20 2.16e-11 0 0
3654 1 0.000635 0.00342656 -0.003175 -0.012096 3.09777e-17 4.17463e-17 2.16e-11 1.05285e-24 6.46435e-36
3741 1 0.000635 0.00452641 -0.00254 -0.012096 4.13115e-17 -1.19382e-17 2.16e-11 5.26426e-25 1.93931e-35
3827 1 0.000635 0.00562626 -0.003175 -0.012096 -1.44595e-16 4.77053e-17 2.16e-11 5.26426e-25 3.55539e-35
3913 1 0.000635 0.00672611 -0.00254 -0.012096 7.23095e-17 -5.97502e-18 2.16e-11 0 1.61609e-35
3998 1 0.000635 0.00782597 -0.003175 -0.012096 0 3.57823e-17 2.16e-11 1.05285e-24 3.23218e-36
4084 1 0.000635 0.00892582 -0.00254 -0.012096 -8.47033e-21 -1.27055e-20 2.16e-11 0 0
4169 1 0.000635 0.0100257 -0.003175 -0.012096 1.3427e-16 4.1748e-17 2.16e-11 5.26426e-25 5.81792e-35
4255 1 0.000635 0.0111255 -0.00254 -0.012096 8.41055e-08 -3.1914e-08 -3.751e-06 1.34554e-10 6.33506e-35
4339 1 0.000635 0.0122254 -0.003175 -0.012096 5.39254e-05 7.10947e-06 1.57136e-05 1.75737e-10 9.6984e-12
4424 1 0.000635 0.0133031 -0.00253941 -0.0118742 -1.58065e-10 -1.96091e-11 6.22187e-10 1.9526e-10 1.90218e-11
4508 1 0.000635 0.0143679 -0.00317297 -0.0115935 4.16472e-10 -8.46191e-12 -1.39384e-09 1.39907e-09 1.20276e-10
2367 1 0.000635 -0.0130269 -0.00126951 -0.011786 -2.67645e-10 3.38487e-12 -6.804e-10 3.33586e-10 1.31883e-11
2451 1 0.000635 -0.0119714 -0.001905 -0.012096 -9.24168e-07 2.53184e-05 9.14276e-06 3.39155e-10 5.82546e-12
2536 1 0.000635 -0.0108715 -0.00127 -0.012096 -1.9293e-07 -4.27803e-09 -5.48576e-06 2.902e-10 6.33506e-35
2621 1 0.000635 -0.00977167 -0.001905 -0.012096 -1.44592e-16 -1.19229e-17 2.16e-11 5.26426e-25 6.39971e-35
2707 1 0.000635 -0.00867182 -0.00127 -0.012096 -7.2301e-17 5.96909e-18 2.16e-11 5.26426e-25 1.61609e-35
2792 1 0.000635 -0.00757197 -0.001905 -0.012096 1.44605e-16 -1.19229e-17 2.16e-11 0 3.29682e-35
2878 1 0.000635 -0.00647211 -0.00127 -0.012096 -1.44605e-16 1.19331e-17 2.16e-11 0 3.23218e-35
2963 1 0.000635 -0.00537226 -0.001905 -0.012096 1.44602e-16 -1.19246e-17 2.16e-11 0 3.29682e-35
3050 1 0.000635 -0.00427241 -0.00127 -0.012096 -1.13613e-16 5.96993e-18 2.16e-11 0 2.13324e-35
3136 1 0.000635 -0.00317256 -0.001905 -0.012096 4.13081e-17 -1.19229e-17 2.16e-11 0 5.81792e-36
3223 1 0.000635 -0.0020727 -0.00127 -0.012096 0 7.6233e-21 2.16e-11 0 0
3309 1 0.000635 -0.000972852 -0.001905 -0.012096 0 -1.19229e-17 2.16e-11 0 6.46435e-37
3396 1 0.000635 0.000127 -0.00127 -0.012096 0 6.77626e-21 2.16e-11 0 0
3482 1 0.000635 0.00122685 -0.001905 -0.012096 0 -1.19229e-17 2.16e-11 0 6.46435e-37
3569 1 0.000635 0.0023267 -0.00127 -0.012096 -6.77626e-21 6.77626e-21 2.16e-11 0 0
3655 1 0.000635 0.00342656 -0.001905 -0.012096 2.06608e-17 -1.19229e-17 2.16e-11 0 1.93931e-36
3742 1 0.000635 0.00452641 -0.00127 -0.012096 4.13149e-17 1.19331e-17 2.16e-11 5.26426e-25 1.93931e-35
3828 1 0.000635 0.00562626 -0.001905 -0.012096 -1.44599e-16 -1.19229e-17 2.16e-11 0 3.29682e-35
3914 1 0.000635 0.00672611 -0.00127 -0.012096 7.23078e-17 5.96909e-18 2.16e-11 5.26426e-25 1.61609e-35
3999 1 0.000635 0.00782597 -0.001905 -0.012096 -6.77626e-21 -1.19229e-17 2.16e-11 5.26426e-25 6.46435e-37
4085 1 0.000635 0.00892582 -0.00127 -0.012096 -6.77626e-21 6.77626e-21 2.16e-11 0 0
4170 1 0.000635 0.0100257 -0.001905 -0.012096 1.44599e-16 -1.19229e-17 2.16e-11 0 6.39971e-35
4256 1 0.000635 0.0111255 -0.00127 -0.012096 9.66212e-08 -6.27523e-09 -3.92178e-06 1.46818e-10 6.33506e-35
4340 1 0.000635 0.0122254 -0.001905 -0.012096 1.56837e-05 3.1e-06 9.6992e-06 1.69796e-10 9.13539e-13
4425 1 0.000635 0.0133024 -0.00126978 -0.0118722 1.47715e-10 -4.04669e-12 -7.47337e-10 1.85324e-10 3.68726e-12
4509 1 0.000635 0.0143567 -0.00190416 -0.0115574 -5.41442e-11 8.51925e-12 -4.39213e-11 6.10046e-11 1.48097e-11
2452 1 0.000635 -0.0119714 -0.000635 -0.012096 -1.15297e-05 8.02961e-06 1.25066e-05 3.27363e-10 1.09712e-12
2622 1 0.000635 -0.00977167 -0.000635 -0.012096 -1.44599e-16 -8.47033e-21 2.16e-11 0 6.33506e-35
2793 1 0.000635 -0.00757197 -0.000635 -0.012096 1.44604e-16 -1.19339e-17 2.16e-11 5.26426e-25 3.23218e-35
2964 1 0.000635 -0.00537226 -0.000635 -0.012096 1.44604e-16 -1.19365e-17 2.16e-11 0 3.23218e-35
3137 1 0.000635 -0.00317256 -0.000635 -0.012096 4.13183e-17 -8.47033e-21 2.16e-11 0 5.17148e-36
3310 1 0.000635 -0.000972852 -0.000635 -0.012096 0 -8.47033e-21 2.16e-11 0 0
3483 1 0.000635 0.00122685 -0.000635 -0.012096 0 -8.47033e-21 2.16e-11 0 0
3656 1 0.000635 0.00342656 -0.000635 -0.012096 3.09811e-17 -5.97078e-18 2.16e-11 5.26426e-25 3.23218e-36
3829 1 0.000635 0.00562626 -0.000635 -0.012096 -1.44597e-16 -1.19339e-17 2.16e-11 5.26426e-25 3.23218e-35
4000 1 0.000635 0.00782597 -0.000635 -0.012096 0 -8.47033e-21 2.16e-11 0 0
4171 1 0.000635 0.0100257 -0.000635 -0.012096 1.44599e-16 -8.47033e-21 2.16e-11 0 6.33506e-35
4341 1 0.000635 0.0122254 -0.000635 -0.012096 3.37168e-06 1.83486e-06 6.85132e-06 1.78729e-10 7.61606e-14
4510 1 0.000635 0.0143522 -0.000634755 -0.0115442 -7.93671e-11 -2.71421e-12 -6.09731e-11 4.55872e-11 7.38869e-12
2368 1 0.000635 -0.0130269 1.40047e-15 -0.0117858 1.97143e-10 -1.37475e-13 6.35476e-10 3.2934e-10 1.10253e-11
2453 1 0.000635 -0.0119714 0.000635 -0.012096 -1.15297e-05 -8.02961e-06 1.25066e-05 3.27363e-10 1.09712e-12
2537 1 0.000635 -0.0108715 0 -0.012096 -1.91595e-07 -5.4593e-17 -5.46726e-06 2.88203e-10 6.33506e-35
2623 1 0.000635 -0.00977167 0.000635 -0.012096 -1.44599e-16 -3.38813e-21 2.16e-11 0 6.33506e-35
2708 1 0.000635 -0.00867182 0 -0.012096 -8.26247e-17 5.92923e-21 2.16e-11 0 2.06859e-35
2794 1 0.000635 -0.00757197 0.000635 -0.012096 1.44602e-16 -3.38813e-21 2.16e-11 0 3.23218e-35
2879 1 0.000635 -0.00647211 0 -0.012096 -1.44605e-16 5.0822e-21 2.16e-11 0 3.23218e-35
2965 1 0.000635 -0.00537226 0.000635 -0.012096 1.44602e-16 -3.38813e-21 2.16e-11 0 3.23218e-35
3051 1 0.000635 -0.00427241 0 -0.012096 -1.03282e-16 5.92923e-21 2.16e-11 0 1.68073e-35
3138 1 0.000635 -0.00317256 0.000635 -0.012096 4.13149e-17 -3.38813e-21 2.16e-11 0 5.17148e-36
3224 1 0.000635 -0.0020727 0 -0.012096 0 6.77626e-21 2.16e-11 0 0
3311 1 0.000635 -0.000972852 0.000635 -0.012096 0 -3.38813e-21 2.16e-11 0 0
3397 1 0.000635 0.000127 0 -0.012096 0 6.77626e-21 2.16e-11 0 0
3484 1 0.000635 0.00122685 0.000635 -0.012096 0 -3.38813e-21 2.16e-11 0 0
3570 1 0.000635 0.0023267 0 -0.012096 -3.38813e-21 5.0822e-21 2.16e-11 5.26426e-25 0
3657 1 0.000635 0.00342656 0.000635 -0.012096 2.06574e-17 -3.38813e-21 2.16e-11 0 1.29287e-36
3743 1 0.000635 0.00452641 0 -0.012096 4.13132e-17 5.92923e-21 2.16e-11 0 1.29287e-35
3830 1 0.000635 0.00562626 0.000635 -0.012096 -1.44595e-16 -3.38813e-21 2.16e-11 0 3.23218e-35
3915 1 0.000635 0.00672611 0 -0.012096 8.26315e-17 5.92923e-21 2.16e-11 0 2.06859e-35
4001 1 0.000635 0.00782597 0.000635 -0.012096 0 -3.38813e-21 2.16e-11 0 0
4086 1 0.000635 0.00892582 0 -0.012096 -6.77626e-21 6.77626e-21 2.16e-11 0 0
4172 1 0.000635 0.0100257 0.000635 -0.012096 1.44599e-16 -3.38813e-21 2.16e-11 0 6.33506e-35
4257 1 0.000635 0.0111255 0 -0.012096 9.9149e-08 2.78403e-17 -3.94747e-06 1.48777e-10 6.33506e-35
4342 1 0.000635 0.0122254 0.000635 -0.012096 3.37168e-06 -1.83486e-06 6.85132e-06 1.78729e-10 7.61606e-14
4426 1 0.000635 0.0133025 1.06507e-15 -0.0118731 1.10975e-10 -1.87342e-14 -6.09949e-10 1.8774e-10 1.671e-12
4511 1 0.000635 0.0143522 0.000634755 -0.0115442 -7.93945e-11 2.78788e-12 -6.09822e-11 4.55872e-11 7.38869e-12
2369 1 0.000635 -0.0130269 0.00126951 -0.011786 -2.67723e-10 -3.18045e-12 -6.80373e-10 3.33586e-10 1.31883e-11
2454 1 0.000635 -0.0119714 0.001905 -0.012096 -9.24168e-07 -2.53184e-05 9.14276e-06 3.39155e-10 5.82546e-12
2538 1 0.000635 -0.0108715 0.00127 -0.012096 -1.9293e-07 4.27803e-09 -5.48576e-06 2.902e-10 6.33506e-35
2624 1 0.000635 -0.00977167 0.001905 -0.012096 -1.44595e-16 1.19221e-17 2.16e-11 0 6.39971e-35
2709 1 0.000635 -0.00867182 0.00127 -0.012096 -8.26264e-17 0 2.16e-11 0 2.06859e-35
2795 1 0.000635 -0.00757197 0.001905 -0.012096 1.44604e-16 1.19221e-17 2.16e-11 0 3.29682e-35
2880 1 0.000635 -0.00647211 0.00127 -0.012096 -1.44605e-16 0 2.16e-11 0 3.23218e-35
2966 1 0.000635 -0.00537226 0.001905 -0.012096 1.44604e-16 1.19238e-17 2.16e-11 0 3.29682e-35
3052 1 0.000635 -0.00427241 0.00127 -0.012096 -1.0328e-16 0 2.16e-11 0 1.68073e-35
3139 1 0.000635 -0.00317256 0.001905 -0.012096 4.13115e-17 1.19229e-17 2.16e-11 0 5.81792e-36
3225 1 0.000635 -0.0020727 0.00127 -0.012096 0 0 2.16e-11 0 0
3312 1 0.000635 -0.000972852 0.001905 -0.012096 0 1.19212e-17 2.16e-11 0 6.46435e-37
3398 1 0.000635 0.000127 0.00127 -0.012096 0 0 2.16e-11 0 0
3485 1 0.000635 0.00122685 0.001905 -0.012096 0 1.19212e-17 2.16e-11 0 6.46435e-37
3571 1 0.000635 0.0023267 0.00127 -0.012096 -6.77626e-21 0 2.16e-11 0 0
3658 1 0.000635 0.00342656 0.001905 -0.012096 2.06591e-17 1.19221e-17 2.16e-11 0 1.93931e-36
3744 1 0.000635 0.00452641 0.00127 -0.012096 4.13115e-17 0 2.16e-11 0 1.29287e-35
3831 1 0.000635 0.00562626 0.001905 -0.012096 -1.44597e-16 1.19221e-17 2.16e-11 0 3.29682e-35
3916 1 0.000635 0.00672611 0.00127 -0.012096 8.26331e-17 0 2.16e-11 0 2.06859e-35
4002 1 0.000635 0.00782597 0.001905 -0.012096 -3.38813e-21 1.19221e-17 2.16e-11 0 6.46435e-37
4087 1 0.000635 0.00892582 0.00127 -0.012096 -6.77626e-21 0 2.16e-11 0 0
4173 1 0.000635 0.0100257 0.001905 -0.012096 1.44599e-16 1.19212e-17 2.16e-11 0 6.39971e-35
4258 1 0.000635 0.0111255 0.00127 -0.012096 9.66212e-08 6.27523e-09 -3.92178e-06 1.46818e-10 6.33506e-35
4343 1 0.000635 0.0122254 0.001905 -0.012096 1.56837e-05 -3.1e-06 9.6992e-06 1.69796e-10 9.13539e-13
4427 1 0.000635 0.0133024 0.00126978 -0.0118722 1.47907e-10 4.16095e-12 -7.47287e-10 1.85324e-10 3.68726e-12
4512 1 0.000635 0.0143567 0.00190416 -0.0115574 -5.42981e-11 -8.63381e-12 -4.39676e-11 6.10046e-11 1.48097e-11
2370 1 0.000635 -0.0130262 0.00253895 -0.0117843 3.71174e-10 -2.78201e-11 1.11091e-09 3.48728e-10 2.40158e-11
2455 1 0.000635 -0.0119714 0.003175 -0.012096 2.05897e-05 -4.55003e-05 2.56258e-06 3.37452e-10 2.01e-11
2539 1 0.000635 -0.0108715 0.00254 -0.012096 -1.9671e-07 3.94782e-09 -5.5495e-06 2.97188e-10 6.33506e-35
2625 1 0.000635 -0.00977167 0.003175 -0.012096 -1.3427e-16 -4.1748e-17 2.16e-11 5.26426e-25 5.81792e-35
2710 1 0.000635 -0.00867182 0.00254 -0.012096 -7.2301e-17 5.97417e-18 2.16e-11 0 1.61609e-35
2796 1 0.000635 -0.00757197 0.003175 -0.012096 1.44602e-16 -4.77053e-17 2.16e-11 5.26426e-25 3.55539e-35
2881 1 0.000635 -0.00647211 0.00254 -0.012096 -1.44605e-16 1.19365e-17 2.16e-11 0 3.23218e-35
2967 1 0.000635 -0.00537226 0.003175 -0.012096 1.44604e-16 -4.7707e-17 2.16e-11 0 3.55539e-35
3053 1 0.000635 -0.00427241 0.00254 -0.012096 -1.03284e-16 1.19373e-17 2.16e-11 5.26426e-25 1.93931e-35