ITEM: TIMESTEP
780000
ITEM: NUMBER OF ATOMS
6793
ITEM: BOX BOUNDS ff ff ff
-8.9999999999999997e-02 8.9999999999999997e-02
-8.9999999999999997e-02 8.9999999999999997e-02
-4.0000000000000001e-02 4.0000000000000001e-02
ITEM: ATOMS id type radius x y z fx fy fz c_bendingE c_stretchingE
3385 1 0.000635 0.000123025 -0.0152179 -0.00809891 -5.43121e-11 6.3007e-10 2.49235e-09 9.329e-10 5.87304e-11
3213 1 0.000635 -0.00207001 -0.0139531 -0.00822424 1.3938e-10 3.67671e-10 1.32157e-09 1.45862e-09 2.49048e-10
3299 1 0.000635 -0.000973778 -0.01459 -0.00820733 7.45584e-11 3.95778e-10 1.1341e-09 1.41916e-09 1.11035e-10
3386 1 0.000635 0.00012653 -0.0139666 -0.00832067 1.24848e-10 1.08274e-10 3.88134e-10 1.09336e-09 2.72353e-11
3472 1 0.000635 0.00122195 -0.0145849 -0.00814233 7.52699e-10 -1.29758e-09 -6.60904e-09 4.68803e-10 8.68233e-11
3559 1 0.000635 0.00231843 -0.0139448 -0.00815686 3.49795e-10 -3.34065e-10 -1.77658e-09 1.51849e-10 2.38529e-10
3041 1 0.000635 -0.00426426 -0.0126823 -0.00821955 3.74324e-10 5.01938e-10 3.04247e-09 8.56959e-10 9.03282e-11
3127 1 0.000635 -0.00316597 -0.0133165 -0.00821956 4.49442e-10 6.41394e-10 3.58393e-09 1.03882e-09 2.48092e-10
3214 1 0.000635 -0.0020727 -0.0127 -0.008424 -8.18582e-05 1.68343e-05 2.18891e-06 1.22807e-09 5.44273e-11
3300 1 0.000635 -0.000973107 -0.0133348 -0.00839708 -2.00742e-11 -2.60755e-10 -3.52028e-09 9.01704e-10 2.26064e-11
3387 1 0.000635 0.000127 -0.0127 -0.008424 -1.13589e-05 -5.8836e-05 4.03833e-06 1.0883e-10 1.11439e-11
3473 1 0.000635 0.00122633 -0.0133336 -0.00836612 5.41313e-12 2.53945e-10 2.40127e-09 1.10255e-10 5.20643e-11
3560 1 0.000635 0.0023267 -0.0127 -0.008424 5.52324e-05 -0.000258193 6.97111e-05 1.84002e-10 2.22952e-10
3733 1 0.000635 0.00452144 -0.0126891 -0.00826053 5.38942e-10 -1.1211e-09 -6.76909e-09 1.14256e-10 1.93224e-11
3646 1 0.000635 0.00341847 -0.0133153 -0.00820472 1.78925e-10 -7.66611e-12 -6.63035e-10 1.62129e-10 1.36882e-10
3819 1 0.000635 0.0056129 -0.0133043 -0.00804926 5.76768e-11 5.65561e-10 1.53327e-09 3.5345e-11 1.34731e-11
3905 1 0.000635 0.00671629 -0.0126796 -0.00811466 -1.46701e-10 1.10203e-09 4.48706e-09 5.46256e-11 9.67571e-12
2870 1 0.000635 -0.00646344 -0.0114158 -0.00823465 3.53302e-10 4.73343e-10 3.06279e-09 6.81874e-10 2.52096e-11
2955 1 0.000635 -0.00536353 -0.0120488 -0.00822487 3.31645e-10 4.8485e-10 2.96162e-09 7.45489e-10 3.55515e-11
3042 1 0.000635 -0.00427241 -0.01143 -0.008424 -5.48462e-06 5.33716e-05 -8.2168e-06 6.11689e-10 1.51371e-11
3128 1 0.000635 -0.00317256 -0.012065 -0.008424 -3.56949e-05 8.26719e-05 -1.13079e-05 7.84477e-10 5.67335e-11
3215 1 0.000635 -0.0020727 -0.01143 -0.008424 2.5624e-08 -8.55869e-08 -3.56541e-06 1.21099e-10 5.17148e-36
3301 1 0.000635 -0.000972852 -0.012065 -0.008424 5.02925e-08 -3.24008e-06 -3.20911e-06 1.07211e-10 4.39904e-14
3388 1 0.000635 0.000127 -0.01143 -0.008424 4.13986e-09 -1.69407e-21 -9.10751e-07 1.5702e-11 5.17148e-36
3474 1 0.000635 0.00122685 -0.012065 -0.008424 -2.83091e-08 6.0891e-06 -2.89765e-06 1.18089e-10 1.77059e-13
3561 1 0.000635 0.0023267 -0.01143 -0.008424 4.20639e-08 -5.32359e-08 -3.79093e-06 1.45119e-10 5.17148e-36
3647 1 0.000635 0.00342656 -0.012065 -0.008424 3.8504e-05 9.28673e-06 5.1912e-06 1.35313e-10 1.35405e-11
3734 1 0.000635 0.00452641 -0.01143 -0.008424 1.80243e-05 8.62719e-06 3.24341e-06 9.50589e-11 3.62064e-12
3820 1 0.000635 0.0056229 -0.0120582 -0.00829375 1.37354e-10 -1.03039e-10 -1.55294e-09 8.42764e-11 4.69452e-12
3906 1 0.000635 0.00672379 -0.0114258 -0.00831919 2.0929e-10 -2.75131e-10 -3.27441e-09 7.66543e-11 3.23528e-12
3991 1 0.000635 0.007819 -0.0120527 -0.00817591 3.59464e-10 -7.41102e-10 -4.94041e-09 7.30192e-10 6.22092e-11
4077 1 0.000635 0.00891775 -0.0114152 -0.00817529 -3.72279e-10 3.96755e-10 2.58812e-09 6.85825e-10 9.23479e-12
2785 1 0.000635 -0.00756367 -0.010783 -0.00824716 2.69197e-10 2.33392e-10 1.90869e-09 6.46102e-10 3.71471e-11
2956 1 0.000635 -0.00537226 -0.010795 -0.008424 1.74592e-05 3.30367e-05 -6.41121e-06 5.28008e-10 4.57467e-12
3129 1 0.000635 -0.00317256 -0.010795 -0.008424 -1.56974e-08 -7.36491e-08 -3.56175e-06 1.20865e-10 6.46435e-36
3302 1 0.000635 -0.000972852 -0.010795 -0.008424 2.24998e-09 -1.69407e-21 -2.37389e-07 1.06536e-12 5.17148e-36
3475 1 0.000635 0.00122685 -0.010795 -0.008424 4.58267e-09 -1.69407e-21 -5.10498e-07 4.92826e-12 5.17148e-36
3648 1 0.000635 0.00342656 -0.010795 -0.008424 5.27703e-08 -3.22177e-08 -3.08318e-06 9.63914e-11 1.0343e-35
3821 1 0.000635 0.00562626 -0.010795 -0.008424 1.11347e-05 -1.43296e-07 3.20905e-06 6.30852e-11 9.33901e-13
3992 1 0.000635 0.00782465 -0.0107932 -0.00834779 2.12463e-11 -6.80418e-11 -8.959e-10 3.75938e-10 3.7042e-11
2615 1 0.000635 -0.00976393 -0.00951658 -0.00826906 -1.56674e-10 -4.70999e-10 -2.59847e-09 6.91099e-10 8.72356e-11
2700 1 0.000635 -0.00866394 -0.0101501 -0.00825999 1.33964e-10 -1.31443e-10 -2.7241e-10 6.37688e-10 6.11806e-11
2786 1 0.000635 -0.00757197 -0.009525 -0.008424 5.33815e-05 7.9854e-06 -4.81722e-06 4.33191e-10 1.98633e-11
2871 1 0.000635 -0.00647211 -0.01016 -0.008424 3.66855e-05 1.89385e-05 -5.43583e-06 4.77186e-10 8.44333e-12
2957 1 0.000635 -0.00537226 -0.009525 -0.008424 -4.95015e-08 -4.76625e-08 -3.31732e-06 1.05105e-10 3.74932e-35
3043 1 0.000635 -0.00427241 -0.01016 -0.008424 -3.68029e-08 -6.08076e-08 -3.47506e-06 1.15171e-10 2.71503e-35
3130 1 0.000635 -0.00317256 -0.009525 -0.008424 2.0671e-17 0 2.16e-11 1.05285e-24 6.46435e-36
3216 1 0.000635 -0.0020727 -0.01016 -0.008424 -6.77626e-21 0 2.16e-11 0 5.17148e-36
3303 1 0.000635 -0.000972852 -0.009525 -0.008424 0 0 2.16e-11 0 5.17148e-36
3389 1 0.000635 0.000127 -0.01016 -0.008424 0 0 2.16e-11 0 5.17148e-36
3476 1 0.000635 0.00122685 -0.009525 -0.008424 0 0 2.16e-11 0 5.17148e-36
3562 1 0.000635 0.0023267 -0.01016 -0.008424 0 0 2.16e-11 0 5.17148e-36
3649 1 0.000635 0.00342656 -0.009525 -0.008424 4.13115e-17 0 2.16e-11 0 1.0343e-35
3735 1 0.000635 0.00452641 -0.01016 -0.008424 3.30563e-08 -1.86783e-08 -2.36623e-06 5.5677e-11 3.10289e-35
3822 1 0.000635 0.00562626 -0.009525 -0.008424 2.56836e-08 -6.9319e-09 -1.82085e-06 3.35679e-11 3.74932e-35
3907 1 0.000635 0.00672611 -0.01016 -0.008424 1.14126e-05 -1.57221e-05 3.0003e-06 5.34405e-11 1.17322e-12
3993 1 0.000635 0.00782597 -0.009525 -0.008424 1.52319e-06 -2.72365e-05 8.50686e-07 1.66787e-10 3.16048e-12
4078 1 0.000635 0.00892484 -0.0101572 -0.0083484 -1.03946e-10 1.18655e-10 1.60964e-09 7.03036e-10 3.21727e-11
4164 1 0.000635 0.0100171 -0.00951419 -0.00825217 -4.70415e-10 2.93751e-10 2.77783e-09 6.59915e-10 5.12996e-11
2446 1 0.000635 -0.0119654 -0.00825176 -0.00826503 -1.52204e-10 -3.22922e-10 -2.94403e-09 1.09172e-09 9.56454e-12
2530 1 0.000635 -0.0108643 -0.00888409 -0.00827339 2.78833e-11 -4.46054e-11 -1.06078e-09 9.32541e-10 3.13845e-11
2616 1 0.000635 -0.00977167 -0.008255 -0.008424 5.99942e-06 -4.79823e-05 6.55202e-06 3.04453e-10 1.74426e-11
2701 1 0.000635 -0.00867182 -0.00889 -0.008424 6.69e-05 -2.28756e-06 -4.35443e-06 3.77556e-10 3.49546e-11
2787 1 0.000635 -0.00757197 -0.008255 -0.008424 -5.80329e-08 -2.61468e-08 -2.92706e-06 8.1778e-11 4.0079e-35
2872 1 0.000635 -0.00647211 -0.00889 -0.008424 -5.59569e-08 -3.552e-08 -3.11765e-06 9.29146e-11 3.74932e-35
2958 1 0.000635 -0.00537226 -0.008255 -0.008424 1.44607e-16 -7.15799e-17 2.16e-11 5.26426e-25 4.0079e-35
3044 1 0.000635 -0.00427241 -0.00889 -0.008424 -1.03289e-16 -4.76841e-17 2.16e-11 1.05285e-24 2.71503e-35
3131 1 0.000635 -0.00317256 -0.008255 -0.008424 3.09912e-17 -7.75431e-17 2.16e-11 5.26426e-25 1.87466e-35
3217 1 0.000635 -0.0020727 -0.00889 -0.008424 -3.38813e-21 -4.76866e-17 2.16e-11 0 5.17148e-36
3304 1 0.000635 -0.000972852 -0.008255 -0.008424 0 -7.15833e-17 2.16e-11 0 1.0343e-35
3390 1 0.000635 0.000127 -0.00889 -0.008424 0 -4.76866e-17 2.16e-11 0 5.17148e-36
3477 1 0.000635 0.00122685 -0.008255 -0.008424 0 -7.15833e-17 2.16e-11 0 1.0343e-35
3563 1 0.000635 0.0023267 -0.00889 -0.008424 0 -4.76858e-17 2.16e-11 0 5.17148e-36
3650 1 0.000635 0.00342656 -0.008255 -0.008424 4.13098e-17 -7.15825e-17 2.16e-11 0 1.0343e-35
3736 1 0.000635 0.00452641 -0.00889 -0.008424 4.13115e-17 -4.76841e-17 2.16e-11 0 3.10289e-35
3823 1 0.000635 0.00562626 -0.008255 -0.008424 -1.446e-16 -7.15791e-17 2.16e-11 0 4.0079e-35
3908 1 0.000635 0.00672611 -0.00889 -0.008424 1.21276e-08 -1.45323e-08 -1.59091e-06 2.45903e-11 1.68073e-35
3994 1 0.000635 0.00782597 -0.008255 -0.008424 -1.08012e-08 -3.88653e-08 -2.18863e-06 5.22552e-11 1.0343e-35
4079 1 0.000635 0.00892582 -0.00889 -0.008424 -5.22541e-05 5.76232e-05 -1.13564e-05 3.99319e-10 2.05353e-11
4165 1 0.000635 0.0100257 -0.008255 -0.008424 0.000143476 1.92152e-05 3.10591e-05 5.49511e-10 1.15309e-10
2362 1 0.000635 -0.013065 -0.00761684 -0.00822115 -4.57045e-10 -3.81501e-10 -4.41859e-09 1.05304e-09 3.45297e-11
2447 1 0.000635 -0.0119701 -0.00698471 -0.00835069 7.90932e-11 -1.23605e-10 2.916e-10 1.82749e-10 2.10977e-11
2531 1 0.000635 -0.0108714 -0.00762 -0.00839711 -1.44859e-10 -1.73982e-10 -3.46313e-09 2.3045e-10 2.99141e-12
2617 1 0.000635 -0.00977167 -0.006985 -0.008424 -6.94323e-06 -3.97175e-06 -1.98025e-06 5.48724e-11 2.85616e-13
2702 1 0.000635 -0.00867182 -0.00762 -0.008424 -6.28804e-08 -1.14288e-08 -2.7742e-06 7.32299e-11 2.9736e-35
2788 1 0.000635 -0.00757197 -0.006985 -0.008424 1.44605e-16 -2.38958e-17 2.16e-11 0 4.0079e-35
2873 1 0.000635 -0.00647211 -0.00762 -0.008424 -1.44609e-16 2.38967e-17 2.16e-11 0 4.0079e-35
2959 1 0.000635 -0.00537226 -0.006985 -0.008424 1.44605e-16 -2.38958e-17 2.16e-11 0 4.0079e-35
3045 1 0.000635 -0.00427241 -0.00762 -0.008424 -1.13623e-16 2.98573e-17 2.16e-11 0 2.90896e-35
3132 1 0.000635 -0.00317256 -0.006985 -0.008424 3.09912e-17 -2.98573e-17 2.16e-11 0 1.87466e-35
3218 1 0.000635 -0.0020727 -0.00762 -0.008424 -1.69407e-21 2.38958e-17 2.16e-11 0 1.0343e-35
3305 1 0.000635 -0.000972852 -0.006985 -0.008424 0 -2.38967e-17 2.16e-11 0 1.0343e-35
3391 1 0.000635 0.000127 -0.00762 -0.008424 0 2.38967e-17 2.16e-11 0 1.0343e-35
3478 1 0.000635 0.00122685 -0.006985 -0.008424 0 -2.38967e-17 2.16e-11 0 1.0343e-35
3564 1 0.000635 0.0023267 -0.00762 -0.008424 0 2.38967e-17 2.16e-11 0 1.0343e-35
3651 1 0.000635 0.00342656 -0.006985 -0.008424 4.13081e-17 -2.38967e-17 2.16e-11 0 1.0343e-35
3737 1 0.000635 0.00452641 -0.00762 -0.008424 4.13217e-17 2.38958e-17 2.16e-11 0 2.06859e-35
3824 1 0.000635 0.00562626 -0.006985 -0.008424 -1.44599e-16 -2.3895e-17 2.16e-11 0 4.0079e-35
3909 1 0.000635 0.00672611 -0.00762 -0.008424 6.19757e-17 2.38958e-17 2.16e-11 0 2.9736e-35
3995 1 0.000635 0.00782597 -0.006985 -0.008424 -6.77626e-21 -2.38967e-17 2.16e-11 0 1.0343e-35
4080 1 0.000635 0.00892582 -0.00762 -0.008424 -3.43062e-08 -7.42963e-08 -4.18521e-06 2.48551e-10 1.0343e-35
4166 1 0.000635 0.0100257 -0.006985 -0.008424 -5.53766e-05 3.18167e-05 -9.6811e-06 4.27818e-10 1.88713e-11
4251 1 0.000635 0.0111215 -0.00761609 -0.00832015 4.36603e-11 -1.07979e-10 -7.20736e-10 6.56898e-10 1.66224e-10
4336 1 0.000635 0.0121972 -0.00696402 -0.0081345 1.57379e-11 -1.80414e-10 -1.80605e-11 7.53582e-10 9.4652e-11
2363 1 0.000635 -0.0130615 -0.00634752 -0.00822531 2.01324e-10 -2.57768e-10 6.82962e-10 1.89403e-10 4.93557e-11
2448 1 0.000635 -0.0119708 -0.00571525 -0.00838671 1.1286e-10 -1.84399e-12 1.72733e-09 9.49393e-11 3.38701e-11
2532 1 0.000635 -0.0108715 -0.00635 -0.008424 -3.72386e-05 -4.13954e-05 2.78812e-06 5.7686e-11 1.13744e-11
2618 1 0.000635 -0.00977167 -0.005715 -0.008424 -1.73127e-09 2.99866e-09 -6.46063e-07 7.89516e-12 6.85221e-35
2703 1 0.000635 -0.00867182 -0.00635 -0.008424 -3.39255e-10 5.87607e-10 -2.37139e-07 1.06302e-12 2.9736e-35
2789 1 0.000635 -0.00757197 -0.005715 -0.008424 1.44602e-16 4.76832e-17 2.16e-11 0 3.74932e-35
2874 1 0.000635 -0.00647211 -0.00635 -0.008424 -1.44609e-16 7.15816e-17 2.16e-11 0 4.0079e-35
2960 1 0.000635 -0.00537226 -0.005715 -0.008424 1.44604e-16 4.76841e-17 2.16e-11 5.26426e-25 3.74932e-35
3046 1 0.000635 -0.00427241 -0.00635 -0.008424 -1.13621e-16 7.75431e-17 2.16e-11 0 2.90896e-35
3133 1 0.000635 -0.00317256 -0.005715 -0.008424 2.0671e-17 4.76858e-17 2.16e-11 5.26426e-25 6.46435e-36
3219 1 0.000635 -0.0020727 -0.00635 -0.008424 -5.0822e-21 7.15842e-17 2.16e-11 0 1.0343e-35
3306 1 0.000635 -0.000972852 -0.005715 -0.008424 0 4.76866e-17 2.16e-11 0 5.17148e-36
3392 1 0.000635 0.000127 -0.00635 -0.008424 0 7.1585e-17 2.16e-11 0 1.0343e-35
3479 1 0.000635 0.00122685 -0.005715 -0.008424 0 4.76866e-17 2.16e-11 0 5.17148e-36
3565 1 0.000635 0.0023267 -0.00635 -0.008424 0 7.15842e-17 2.16e-11 0 1.0343e-35
3652 1 0.000635 0.00342656 -0.005715 -0.008424 4.13098e-17 4.76858e-17 2.16e-11 0 1.0343e-35
3738 1 0.000635 0.00452641 -0.00635 -0.008424 4.13183e-17 7.15816e-17 2.16e-11 0 2.06859e-35
3825 1 0.000635 0.00562626 -0.005715 -0.008424 -1.44597e-16 4.76841e-17 2.16e-11 0 3.74932e-35
3910 1 0.000635 0.00672611 -0.00635 -0.008424 6.19774e-17 7.15825e-17 2.16e-11 0 2.9736e-35
3996 1 0.000635 0.00782597 -0.005715 -0.008424 -6.77626e-21 4.76849e-17 2.16e-11 0 5.17148e-36
4081 1 0.000635 0.00892582 -0.00635 -0.008424 -6.10502e-09 -1.05742e-08 -9.16731e-07 1.59117e-11 1.0343e-35
4167 1 0.000635 0.0100257 -0.005715 -0.008424 -1.80782e-08 -3.13124e-08 -2.55599e-06 1.25138e-10 6.85221e-35
4252 1 0.000635 0.0111255 -0.00635 -0.008424 -0.00013162 -2.17049e-05 -1.78015e-05 5.94866e-10 5.59931e-11
4337 1 0.000635 0.0122231 -0.00571573 -0.00837544 -1.8828e-10 1.14678e-10 2.48094e-09 8.11086e-10 1.44234e-10
2364 1 0.000635 -0.0130543 -0.00507788 -0.0082121 -1.03409e-09 -1.02689e-10 -5.21488e-09 1.32824e-10 1.06245e-10
2533 1 0.000635 -0.0108715 -0.00508 -0.008424 -8.08957e-06 -4.73393e-06 -2.46936e-06 1.07505e-10 3.89167e-13
2704 1 0.000635 -0.00867182 -0.00508 -0.008424 -6.19774e-17 -2.3845e-17 2.16e-11 0 1.42216e-35
2875 1 0.000635 -0.00647211 -0.00508 -0.008424 -1.44605e-16 -2.38442e-17 2.16e-11 0 3.49075e-35
3047 1 0.000635 -0.00427241 -0.00508 -0.008424 -1.03287e-16 -2.38433e-17 2.16e-11 1.57928e-24 2.45645e-35
3220 1 0.000635 -0.0020727 -0.00508 -0.008424 -3.38813e-21 -2.38442e-17 2.16e-11 0 2.58574e-36
3393 1 0.000635 0.000127 -0.00508 -0.008424 0 -2.38442e-17 2.16e-11 0 2.58574e-36
3566 1 0.000635 0.0023267 -0.00508 -0.008424 -3.38813e-21 -2.38459e-17 2.16e-11 0 2.58574e-36
3739 1 0.000635 0.00452641 -0.00508 -0.008424 4.13081e-17 -2.38433e-17 2.16e-11 5.26426e-25 2.84431e-35
3911 1 0.000635 0.00672611 -0.00508 -0.008424 6.19859e-17 -2.38442e-17 2.16e-11 0 1.42216e-35
4082 1 0.000635 0.00892582 -0.00508 -0.008424 -8.47033e-21 -2.3845e-17 2.16e-11 0 2.58574e-36
4253 1 0.000635 0.0111255 -0.00508 -0.008424 -3.30923e-05 1.8978e-05 -7.00212e-06 4.02885e-10 6.69982e-12
4422 1 0.000635 0.0133121 -0.00507805 -0.00824683 1.15896e-10 -1.4533e-10 -3.4202e-10 1.02899e-09 5.03807e-11
2365 1 0.000635 -0.0130463 -0.00380914 -0.00818955 1.80132e-10 -9.7869e-11 3.56547e-10 1.80396e-10 2.91372e-11
2449 1 0.000635 -0.0119714 -0.004445 -0.008424 -0.000130045 -7.82632e-05 3.49717e-05 1.63123e-10 7.34535e-11
2534 1 0.000635 -0.0108715 -0.00381 -0.008424 -8.41009e-08 -4.41884e-08 -3.89273e-06 1.44834e-10 4.65433e-35
2619 1 0.000635 -0.00977167 -0.004445 -0.008424 -2.23073e-09 3.86374e-09 -3.28822e-07 2.04438e-12 6.01185e-35
2705 1 0.000635 -0.00867182 -0.00381 -0.008424 -8.2623e-17 0 2.16e-11 1.05285e-24 2.06859e-35
2790 1 0.000635 -0.00757197 -0.004445 -0.008424 1.44602e-16 -5.96282e-17 2.16e-11 5.26426e-25 3.74932e-35
2876 1 0.000635 -0.00647211 -0.00381 -0.008424 -1.44605e-16 0 2.16e-11 0 3.23218e-35
2961 1 0.000635 -0.00537226 -0.004445 -0.008424 1.44604e-16 -5.9629e-17 2.16e-11 5.26426e-25 3.74932e-35
3048 1 0.000635 -0.00427241 -0.00381 -0.008424 -1.03291e-16 0 2.16e-11 0 1.68073e-35
3134 1 0.000635 -0.00317256 -0.004445 -0.008424 3.09963e-17 -5.36693e-17 2.16e-11 1.57928e-24 8.40366e-36
3221 1 0.000635 -0.0020727 -0.00381 -0.008424 -6.77626e-21 0 2.16e-11 2.10571e-24 0
3307 1 0.000635 -0.000972852 -0.004445 -0.008424 0 -4.77053e-17 2.16e-11 1.05285e-24 5.17148e-36
3394 1 0.000635 0.000127 -0.00381 -0.008424 0 0 2.16e-11 1.05285e-24 0
3480 1 0.000635 0.00122685 -0.004445 -0.008424 0 -4.77053e-17 2.16e-11 1.05285e-24 5.17148e-36
3567 1 0.000635 0.0023267 -0.00381 -0.008424 0 0 2.16e-11 2.10571e-24 0
3653 1 0.000635 0.00342656 -0.004445 -0.008424 3.09811e-17 -5.36701e-17 2.16e-11 1.05285e-24 8.40366e-36
3740 1 0.000635 0.00452641 -0.00381 -0.008424 4.13217e-17 7.70372e-34 2.16e-11 0 1.29287e-35
3826 1 0.000635 0.00562626 -0.004445 -0.008424 -1.44597e-16 -5.9629e-17 2.16e-11 5.26426e-25 3.74932e-35
3912 1 0.000635 0.00672611 -0.00381 -0.008424 8.26298e-17 0 2.16e-11 1.05285e-24 2.06859e-35
3997 1 0.000635 0.00782597 -0.004445 -0.008424 -3.38813e-21 -4.77061e-17 2.16e-11 1.05285e-24 5.17148e-36
4083 1 0.000635 0.00892582 -0.00381 -0.008424 -6.77626e-21 0 2.16e-11 1.05285e-24 0
4168 1 0.000635 0.0100257 -0.004445 -0.008424 7.85475e-09 1.36048e-08 -4.28454e-07 3.47539e-12 6.01185e-35
4254 1 0.000635 0.0111255 -0.00381 -0.008424 4.75361e-08 -7.67632e-09 -2.9584e-06 8.3418e-11 4.65433e-35
4338 1 0.000635 0.0122254 -0.004445 -0.008424 7.38364e-05 -5.24754e-05 1.11055e-05 8.70771e-10 6.84286e-11
4423 1 0.000635 0.0133175 -0.00380887 -0.00828494 -3.58363e-10 -5.41066e-11 2.33269e-09 5.84659e-10 7.64579e-11
2366 1 0.000635 -0.0130471 -0.00253956 -0.00819411 -2.44509e-10 -8.2537e-11 -1.24519e-09 1.82222e-10 6.01153e-12
2450 1 0.000635 -0.0119714 -0.003175 -0.008424 -1.25361e-05 1.31682e-05 9.35704e-06 1.77722e-10 2.12067e-12
2535 1 0.000635 -0.0108715 -0.00254 -0.008424 -1.04046e-07 -1.51618e-09 -4.06874e-06 1.58196e-10 6.33506e-35
2620 1 0.000635 -0.00977167 -0.003175 -0.008424 -1.3427e-16 4.1748e-17 2.16e-11 5.26426e-25 5.81792e-35
2706 1 0.000635 -0.00867182 -0.00254 -0.008424 -7.2301e-17 -5.97417e-18 2.16e-11 0 1.61609e-35
2791 1 0.000635 -0.00757197 -0.003175 -0.008424 1.44602e-16 4.77053e-17 2.16e-11 5.26426e-25 3.55539e-35
2877 1 0.000635 -0.00647211 -0.00254 -0.008424 -1.44605e-16 -1.19365e-17 2.16e-11 0 3.23218e-35
2962 1 0.000635 -0.00537226 -0.003175 -0.008424 1.44604e-16 4.7707e-17 2.16e-11 0 3.55539e-35
3049 1 0.000635 -0.00427241 -0.00254 -0.008424 -1.03284e-16 -1.19373e-17 2.16e-11 5.26426e-25 1.93931e-35
3135 1 0.000635 -0.00317256 -0.003175 -0.008424 3.09963e-17 4.17472e-17 2.16e-11 1.05285e-24 6.46435e-36
3222 1 0.000635 -0.0020727 -0.00254 -0.008424 0 -1.43996e-20 2.16e-11 0 0
3308 1 0.000635 -0.000972852 -0.003175 -0.008424 0 3.57823e-17 2.16e-11 1.05285e-24 3.23218e-36
3395 1 0.000635 0.000127 -0.00254 -0.008424 0 -1.35525e-20 2.16e-11 0 0
3481 1 0.000635 0.00122685 -0.003175 -0.008424 0 3.57823e-17 2.16e-11 1.05285e-24 3.23218e-36
3568 1 0.000635 0.0023267 -0.00254 -0.008424 -6.77626e-21 -1.35525e-20 2.16e-11 0 0
3654 1 0.000635 0.00342656 -0.003175 -0.008424 3.09777e-17 4.17463e-17 2.16e-11 1.05285e-24 6.46435e-36
3741 1 0.000635 0.00452641 -0.00254 -0.008424 4.13115e-17 -1.19382e-17 2.16e-11 5.26426e-25 1.93931e-35
3827 1 0.000635 0.00562626 -0.003175 -0.008424 -1.44595e-16 4.77053e-17 2.16e-11 5.26426e-25 3.55539e-35
3913 1 0.000635 0.00672611 -0.00254 -0.008424 7.23095e-17 -5.97502e-18 2.16e-11 0 1.61609e-35
3998 1 0.000635 0.00782597 -0.003175 -0.008424 0 3.57823e-17 2.16e-11 1.05285e-24 3.23218e-36
4084 1 0.000635 0.00892582 -0.00254 -0.008424 -8.47033e-21 -1.27055e-20 2.16e-11 0 0
4169 1 0.000635 0.0100257 -0.003175 -0.008424 1.3427e-16 4.1748e-17 2.16e-11 5.26426e-25 5.81792e-35
4255 1 0.000635 0.0111255 -0.00254 -0.008424 4.10884e-08 -2.69619e-08 -2.69724e-06 6.96471e-11 6.33506e-35
4339 1 0.000635 0.0122254 -0.003175 -0.008424 5.36536e-05 1.14351e-05 1.06673e-05 9.6279e-11 1.00987e-11
4424 1 0.000635 0.0133144 -0.00253947 -0.00826562 -3.61519e-10 -7.97742e-11 2.14981e-09 1.07902e-10 2.07021e-11
4508 1 0.000635 0.014398 -0.00317329 -0.00807093 2.81451e-10 -5.49842e-11 -1.1393e-09 7.08869e-10 8.92315e-11
2367 1 0.000635 -0.0130478 -0.00126981 -0.00819708 -5.74462e-10 -5.42552e-11 -2.82279e-09 1.80498e-10 3.1714e-12
2451 1 0.000635 -0.0119714 -0.001905 -0.008424 -8.9998e-06 8.82417e-06 8.46106e-06 1.78098e-10 9.92706e-13
2536 1 0.000635 -0.0108715 -0.00127 -0.008424 -1.02865e-07 1.45203e-10 -4.02219e-06 1.54535e-10 6.33506e-35
2621 1 0.000635 -0.00977167 -0.001905 -0.008424 -1.44592e-16 -1.19229e-17 2.16e-11 5.26426e-25 6.39971e-35
2707 1 0.000635 -0.00867182 -0.00127 -0.008424 -7.2301e-17 5.96909e-18 2.16e-11 5.26426e-25 1.61609e-35
2792 1 0.000635 -0.00757197 -0.001905 -0.008424 1.44605e-16 -1.19229e-17 2.16e-11 0 3.29682e-35
2878 1 0.000635 -0.00647211 -0.00127 -0.008424 -1.44605e-16 1.19331e-17 2.16e-11 0 3.23218e-35
2963 1 0.000635 -0.00537226 -0.001905 -0.008424 1.44602e-16 -1.19246e-17 2.16e-11 0 3.29682e-35
3050 1 0.000635 -0.00427241 -0.00127 -0.008424 -1.13613e-16 5.96993e-18 2.16e-11 0 2.13324e-35
3136 1 0.000635 -0.00317256 -0.001905 -0.008424 4.13081e-17 -1.19229e-17 2.16e-11 0 5.81792e-36
3223 1 0.000635 -0.0020727 -0.00127 -0.008424 0 7.6233e-21 2.16e-11 0 0
3309 1 0.000635 -0.000972852 -0.001905 -0.008424 0 -1.19229e-17 2.16e-11 0 6.46435e-37
3396 1 0.000635 0.000127 -0.00127 -0.008424 0 6.77626e-21 2.16e-11 0 0
3482 1 0.000635 0.00122685 -0.001905 -0.008424 0 -1.19229e-17 2.16e-11 0 6.46435e-37
3569 1 0.000635 0.0023267 -0.00127 -0.008424 -6.77626e-21 6.77626e-21 2.16e-11 0 0
3655 1 0.000635 0.00342656 -0.001905 -0.008424 2.06608e-17 -1.19229e-17 2.16e-11 0 1.93931e-36
3742 1 0.000635 0.00452641 -0.00127 -0.008424 4.13149e-17 1.19331e-17 2.16e-11 5.26426e-25 1.93931e-35
3828 1 0.000635 0.00562626 -0.001905 -0.008424 -1.44599e-16 -1.19229e-17 2.16e-11 0 3.29682e-35
3914 1 0.000635 0.00672611 -0.00127 -0.008424 7.23078e-17 5.96909e-18 2.16e-11 5.26426e-25 1.61609e-35
3999 1 0.000635 0.00782597 -0.001905 -0.008424 -6.77626e-21 -1.19229e-17 2.16e-11 5.26426e-25 6.46435e-37
4085 1 0.000635 0.00892582 -0.00127 -0.008424 -6.77626e-21 6.77626e-21 2.16e-11 0 0
4170 1 0.000635 0.0100257 -0.001905 -0.008424 1.44599e-16 -1.19229e-17 2.16e-11 0 6.39971e-35
4256 1 0.000635 0.0111255 -0.00127 -0.008424 5.01148e-08 -1.08655e-08 -2.87913e-06 7.88212e-11 6.33506e-35
4340 1 0.000635 0.0122254 -0.001905 -0.008424 2.49953e-05 1.38517e-06 8.54116e-06 8.79805e-11 1.99509e-12
4425 1 0.000635 0.0133127 -0.0012698 -0.00825715 1.05704e-09 -1.30602e-11 -6.18592e-09 9.69714e-11 4.15755e-12
2368 1 0.000635 -0.0130479 6.40794e-16 -0.00819781 -1.13488e-09 8.3783e-14 -5.18257e-09 1.80265e-10 2.589e-12
2452 1 0.000635 -0.0119714 -0.000635 -0.008424 -1.06755e-05 2.68568e-06 8.68334e-06 1.77516e-10 4.58737e-13
2622 1 0.000635 -0.00977167 -0.000635 -0.008424 -1.44599e-16 -8.47033e-21 2.16e-11 0 6.33506e-35
2793 1 0.000635 -0.00757197 -0.000635 -0.008424 1.44604e-16 -1.19339e-17 2.16e-11 5.26426e-25 3.23218e-35
2964 1 0.000635 -0.00537226 -0.000635 -0.008424 1.44604e-16 -1.19365e-17 2.16e-11 0 3.23218e-35
3137 1 0.000635 -0.00317256 -0.000635 -0.008424 4.13183e-17 -8.47033e-21 2.16e-11 0 5.17148e-36
3310 1 0.000635 -0.000972852 -0.000635 -0.008424 0 -8.47033e-21 2.16e-11 0 0
3483 1 0.000635 0.00122685 -0.000635 -0.008424 0 -8.47033e-21 2.16e-11 0 0
3656 1 0.000635 0.00342656 -0.000635 -0.008424 3.09811e-17 -5.97078e-18 2.16e-11 5.26426e-25 3.23218e-36
3829 1 0.000635 0.00562626 -0.000635 -0.008424 -1.44597e-16 -1.19339e-17 2.16e-11 5.26426e-25 3.23218e-35
4000 1 0.000635 0.00782597 -0.000635 -0.008424 0 -8.47033e-21 2.16e-11 0 0
4171 1 0.000635 0.0100257 -0.000635 -0.008424 1.44599e-16 -8.47033e-21 2.16e-11 0 6.33506e-35
4341 1 0.000635 0.0122254 -0.000635 -0.008424 9.63252e-06 6.73655e-07 6.32207e-06 9.45695e-11 3.08615e-13
2453 1 0.000635 -0.0119714 0.000635 -0.008424 -1.06755e-05 -2.68568e-06 8.68334e-06 1.77516e-10 4.58737e-13
2537 1 0.000635 -0.0108715 0 -0.008424 -1.02012e-07 9.45035e-18 -4.00233e-06 1.52986e-10 6.33506e-35
2623 1 0.000635 -0.00977167 0.000635 -0.008424 -1.44599e-16 -3.38813e-21 2.16e-11 0 6.33506e-35
2708 1 0.000635 -0.00867182 0 -0.008424 -8.26247e-17 5.92923e-21 2.16e-11 0 2.06859e-35
2794 1 0.000635 -0.00757197 0.000635 -0.008424 1.44602e-16 -3.38813e-21 2.16e-11 0 3.23218e-35
2879 1 0.000635 -0.00647211 0 -0.008424 -1.44605e-16 5.0822e-21 2.16e-11 0 3.23218e-35
2965 1 0.000635 -0.00537226 0.000635 -0.008424 1.44602e-16 -3.38813e-21 2.16e-11 0 3.23218e-35
3051 1 0.000635 -0.00427241 0 -0.008424 -1.03282e-16 5.92923e-21 2.16e-11 0 1.68073e-35
3138 1 0.000635 -0.00317256 0.000635 -0.008424 4.13149e-17 -3.38813e-21 2.16e-11 0 5.17148e-36
3224 1 0.000635 -0.0020727 0 -0.008424 0 6.77626e-21 2.16e-11 0 0
3311 1 0.000635 -0.000972852 0.000635 -0.008424 0 -3.38813e-21 2.16e-11 0 0
3397 1 0.000635 0.000127 0 -0.008424 0 6.77626e-21 2.16e-11 0 0
3484 1 0.000635 0.00122685 0.000635 -0.008424 0 -3.38813e-21 2.16e-11 0 0
3570 1 0.000635 0.0023267 0 -0.008424 -3.38813e-21 5.0822e-21 2.16e-11 5.26426e-25 0
3657 1 0.000635 0.00342656 0.000635 -0.008424 2.06574e-17 -3.38813e-21 2.16e-11 0 1.29287e-36
3743 1 0.000635 0.00452641 0 -0.008424 4.13132e-17 5.92923e-21 2.16e-11 0 1.29287e-35
3830 1 0.000635 0.00562626 0.000635 -0.008424 -1.44595e-16 -3.38813e-21 2.16e-11 0 3.23218e-35
3915 1 0.000635 0.00672611 0 -0.008424 8.26315e-17 5.92923e-21 2.16e-11 0 2.06859e-35
4001 1 0.000635 0.00782597 0.000635 -0.008424 0 -3.38813e-21 2.16e-11 0 0
4086 1 0.000635 0.00892582 0 -0.008424 -6.77626e-21 6.77626e-21 2.16e-11 0 0
4172 1 0.000635 0.0100257 0.000635 -0.008424 1.44599e-16 -3.38813e-21 2.16e-11 0 6.33506e-35
4257 1 0.000635 0.0111255 0 -0.008424 5.36042e-08 2.90337e-17 -2.9428e-06 8.22942e-11 6.33506e-35
4342 1 0.000635 0.0122254 0.000635 -0.008424 9.63252e-06 -6.73655e-07 6.32207e-06 9.45695e-11 3.08615e-13
4426 1 0.000635 0.0133124 -3.69707e-16 -0.00825588 1.18879e-10 -4.8683e-14 -1.18699e-09 9.94108e-11 1.86434e-12
2369 1 0.000635 -0.0130478 0.00126981 -0.00819708 -5.74322e-10 5.40708e-11 -2.82283e-09 1.80498e-10 3.1714e-12
2454 1 0.000635 -0.0119714 0.001905 -0.008424 -8.9998e-06 -8.82417e-06 8.46106e-06 1.78098e-10 9.92706e-13
2538 1 0.000635 -0.0108715 0.00127 -0.008424 -1.02865e-07 -1.45203e-10 -4.02219e-06 1.54535e-10 6.33506e-35
2624 1 0.000635 -0.00977167 0.001905 -0.008424 -1.44595e-16 1.19221e-17 2.16e-11 0 6.39971e-35
2709 1 0.000635 -0.00867182 0.00127 -0.008424 -8.26264e-17 0 2.16e-11 0 2.06859e-35
2795 1 0.000635 -0.00757197 0.001905 -0.008424 1.44604e-16 1.19221e-17 2.16e-11 0 3.29682e-35
2880 1 0.000635 -0.00647211 0.00127 -0.008424 -1.44605e-16 0 2.16e-11 0 3.23218e-35
2966 1 0.000635 -0.00537226 0.001905 -0.008424 1.44604e-16 1.19238e-17 2.16e-11 0 3.29682e-35
3052 1 0.000635 -0.00427241 0.00127 -0.008424 -1.0328e-16 0 2.16e-11 0 1.68073e-35
3139 1 0.000635 -0.00317256 0.001905 -0.008424 4.13115e-17 1.19229e-17 2.16e-11 0 5.81792e-36
3225 1 0.000635 -0.0020727 0.00127 -0.008424 0 0 2.16e-11 0 0
3312 1 0.000635 -0.000972852 0.001905 -0.008424 0 1.19212e-17 2.16e-11 0 6.46435e-37
3398 1 0.000635 0.000127 0.00127 -0.008424 0 0 2.16e-11 0 0
3485 1 0.000635 0.00122685 0.001905 -0.008424 0 1.19212e-17 2.16e-11 0 6.46435e-37
3571 1 0.000635 0.0023267 0.00127 -0.008424 -6.77626e-21 0 2.16e-11 0 0
3658 1 0.000635 0.00342656 0.001905 -0.008424 2.06591e-17 1.19221e-17 2.16e-11 0 1.93931e-36
3744 1 0.000635 0.00452641 0.00127 -0.008424 4.13115e-17 0 2.16e-11 0 1.29287e-35
3831 1 0.000635 0.00562626 0.001905 -0.008424 -1.44597e-16 1.19221e-17 2.16e-11 0 3.29682e-35
3916 1 0.000635 0.00672611 0.00127 -0.008424 8.26331e-17 0 2.16e-11 0 2.06859e-35
4002 1 0.000635 0.00782597 0.001905 -0.008424 -3.38813e-21 1.19221e-17 2.16e-11 0 6.46435e-37
4087 1 0.000635 0.00892582 0.00127 -0.008424 -6.77626e-21 0 2.16e-11 0 0
4173 1 0.000635 0.0100257 0.001905 -0.008424 1.44599e-16 1.19212e-17 2.16e-11 0 6.39971e-35
4258 1 0.000635 0.0111255 0.00127 -0.008424 5.01148e-08 1.08655e-08 -2.87913e-06 7.88212e-11 6.33506e-35
4343 1 0.000635 0.0122254 0.001905 -0.008424 2.49953e-05 -1.38517e-06 8.54116e-06 8.79805e-11 1.99509e-12
4427 1 0.000635 0.0133127 0.0012698 -0.00825715 1.05701e-09 1.32245e-11 -6.18592e-09 9.69714e-11 4.15755e-12
2370 1 0.000635 -0.0130471 0.00253956 -0.00819411 -2.44521e-10 8.26267e-11 -1.24519e-09 1.82222e-10 6.01153e-12
2455 1 0.000635 -0.0119714 0.003175 -0.008424 -1.25361e-05 -1.31682e-05 9.35704e-06 1.77722e-10 2.12067e-12
2539 1 0.000635 -0.0108715 0.00254 -0.008424 -1.04046e-07 1.51618e-09 -4.06874e-06 1.58196e-10 6.33506e-35
2625 1 0.000635 -0.00977167 0.003175 -0.008424 -1.3427e-16 -4.1748e-17 2.16e-11 5.26426e-25 5.81792e-35
2710 1 0.000635 -0.00867182 0.00254 -0.008424 -7.2301e-17 5.97417e-18 2.16e-11 0 1.61609e-35
2796 1 0.000635 -0.00757197 0.003175 -0.008424 1.44602e-16 -4.77053e-17 2.16e-11 5.26426e-25 3.55539e-35
2881 1 0.000635 -0.00647211 0.00254 -0.008424 -1.44605e-16 1.19365e-17 2.16e-11 0 3.23218e-35
2967 1 0.000635 -0.00537226 0.003175 -0.008424 1.44604e-16 -4.7707e-17 2.16e-11 0 3.55539e-35
3053 1 0.000635 -0.00427241 0.00254 -0.008424 -1.03284e-16 1.19373e-17 2.16e-11 5.26426e-25 1.93931e-35
3140 1 0.000635 -0.00317256 0.003175 -0.008424 3.09963e-17 -4.17472e-17 2.16e-11 1.05285e-24 6.46435e-36
3226 1 0.000635 -0.0020727 0.00254 -0.008424 0 1.43996e-20 2.16e-11 0 0
3313 1 0.000635 -0.000972852 0.003175 -0.008424 0 -3.57823e-17 2.16e-11 1.05285e-24 3.23218e-36
3399 1 0.000635 0.000127 0.00254 -0.008424 0 1.35525e-20 2.16e-11 0 0
3486 1 0.000635 0.00122685 0.003175 -0.008424 0 -3.57823e-17 2.16e-11 1.05285e-24 3.23218e-36
3572 1 0.000635 0.0023267 0.00254 -0.008424 -6.77626e-21 1.35525e-20 2.16e-11 0 0
3659 1 0.000635 0.00342656 0.003175 -0.008424 3.09777e-17 -4.17463e-17 2.16e-11 1.05285e-24 6.46435e-36
3745 1 0.000635 0.00452641 0.00254 -0.008424 4.13115e-17 1.19382e-17 2.16e-11 5.26426e-25 1.93931e-35
3832 1 0.000635 0.00562626 0.003175 -0.008424 -1.44595e-16 -4.77053e-17 2.16e-11 5.26426e-25 3.55539e-35
3917 1 0.000635 0.00672611 0.00254 -0.008424 7.23095e-17 5.97502e-18 2.16e-11 0 1.61609e-35
4003 1 0.000635 0.00782597 0.003175 -0.008424 0 -3.57823e-17 2.16e-11 1.05285e-24 3.23218e-36
4088 1 0.000635 0.00892582 0.00254 -0.008424 -8.47033e-21 1.27055e-20 2.16e-11 0 0
4174 1 0.000635 0.0100257 0.003175 -0.008424 1.3427e-16 -4.1748e-17 2.16e-11 5.26426e-25 5.81792e-35
4259 1 0.000635 0.0111255 0.00254 -0.008424 4.10884e-08 2.69619e-08 -2.69724e-06 6.96471e-11 6.33506e-35