ITEM: TIMESTEP
840000
ITEM: NUMBER OF ATOMS
6793
ITEM: BOX BOUNDS ff ff ff
-8.9999999999999997e-02 8.9999999999999997e-02
-8.9999999999999997e-02 8.9999999999999997e-02
-4.0000000000000001e-02 4.0000000000000001e-02
ITEM: ATOMS id type radius x y z fx fy fz c_bendingE c_stretchingE
3384 1 0.000635 9.77951e-05 -0.0164079 -0.00829904 7.84645e-11 -2.91687e-10 -5.13766e-10 1.40726e-09 2.45155e-11
3470 1 0.000635 0.00118376 -0.0170246 -0.00807139 1.392e-10 -9.98843e-10 -2.41525e-09 8.16491e-10 7.93367e-11
3557 1 0.000635 0.00228618 -0.0163978 -0.00813122 1.06344e-10 -6.78304e-10 -1.58377e-09 1.58466e-10 5.52285e-11
3298 1 0.000635 -0.000931624 -0.015673 -0.00819582 -2.52368e-10 -5.78509e-10 -9.20161e-10 2.23868e-09 7.43241e-11
3385 1 0.000635 0.000122588 -0.0152164 -0.00873738 1.85456e-11 -1.12963e-10 1.42269e-11 1.06473e-09 6.1906e-11
3471 1 0.000635 0.00120849 -0.0158161 -0.00846678 6.70915e-11 -3.10912e-10 -6.60319e-10 1.14095e-09 1.05316e-10
3558 1 0.000635 0.00230254 -0.0151722 -0.00846866 -2.9471e-10 3.7613e-10 2.01109e-09 7.97048e-11 8.60638e-11
3644 1 0.000635 0.00338127 -0.0157558 -0.00813903 5.33467e-11 -4.84736e-10 -8.20281e-10 1.66293e-11 2.05735e-11
3731 1 0.000635 0.00448393 -0.01513 -0.00820093 2.75183e-10 -1.12047e-09 -3.28539e-09 1.3793e-11 1.38156e-11
3903 1 0.000635 0.00667855 -0.0151251 -0.00805782 5.00388e-11 8.4904e-12 3.40326e-10 4.29305e-11 2.17041e-11
3040 1 0.000635 -0.00415936 -0.0137663 -0.00821679 -3.04083e-10 -7.04632e-10 -1.09162e-09 9.55326e-10 3.89825e-11
3126 1 0.000635 -0.00303115 -0.0143454 -0.00813971 4.29355e-11 1.75817e-10 -2.50029e-10 1.72848e-09 6.91705e-11
3213 1 0.000635 -0.00207035 -0.0139534 -0.00887463 -9.96705e-11 -1.70906e-10 -5.23818e-10 1.67237e-09 2.70442e-10
3299 1 0.000635 -0.000974043 -0.01459 -0.00885588 -8.24125e-11 -2.83425e-10 -5.40888e-10 1.61796e-09 1.14373e-10
3386 1 0.000635 0.000126376 -0.0139665 -0.00896716 -1.05652e-10 3.30466e-10 2.83039e-09 1.24013e-09 2.74935e-11
3472 1 0.000635 0.0012209 -0.014582 -0.00877494 -3.9861e-11 1.52676e-10 9.06741e-10 5.36735e-10 9.67058e-11
3559 1 0.000635 0.00231647 -0.0139404 -0.00878495 -4.8247e-10 8.67037e-10 3.66253e-09 1.80782e-10 2.59227e-10
3645 1 0.000635 0.00339928 -0.0145339 -0.00848696 -2.42904e-10 3.45009e-10 1.74353e-09 3.49361e-11 3.9203e-11
3732 1 0.000635 0.00450414 -0.0139156 -0.00857304 2.81319e-10 -1.34399e-09 -4.2378e-09 4.44634e-11 3.66556e-11
3818 1 0.000635 0.00559129 -0.0145195 -0.0083126 2.60331e-10 -1.16062e-09 -3.50123e-09 1.77228e-11 1.43041e-11
3904 1 0.000635 0.0066984 -0.0139074 -0.00842058 -3.75645e-11 1.20374e-10 7.57011e-10 5.07188e-11 1.91336e-11
3989 1 0.000635 0.00778598 -0.0145143 -0.0081705 6.17732e-12 1.77701e-10 9.20845e-10 7.79773e-10 7.58365e-11
4075 1 0.000635 0.00888355 -0.0138771 -0.0081923 2.14943e-10 -2.03e-10 -3.94892e-10 9.69306e-10 2.6337e-11
2869 1 0.000635 -0.0063853 -0.012545 -0.00830629 -4.71057e-10 -9.72963e-10 -1.39322e-09 7.35511e-10 3.7534e-12
2954 1 0.000635 -0.00527513 -0.0131608 -0.00826686 -2.97676e-10 -6.7852e-10 -1.00139e-09 8.0858e-10 9.14297e-12
3041 1 0.000635 -0.00426448 -0.0126827 -0.00886965 -1.5824e-12 1.8117e-11 6.57123e-11 9.80071e-10 9.6853e-11
3127 1 0.000635 -0.0031663 -0.0133169 -0.00887026 -8.71401e-11 -8.5822e-11 -5.06361e-10 1.19095e-09 2.63026e-10
3214 1 0.000635 -0.0020727 -0.0127 -0.009072 -8.67061e-05 2.14194e-05 8.91305e-07 1.40907e-09 5.92973e-11
3300 1 0.000635 -0.000973182 -0.0133348 -0.00904573 -1.75338e-11 8.94521e-11 1.66701e-09 1.03791e-09 2.64145e-11
3387 1 0.000635 0.000127 -0.0127 -0.009072 -1.9341e-05 -5.89661e-05 3.74021e-06 1.21597e-10 1.19694e-11
3473 1 0.000635 0.00122623 -0.0133336 -0.00901485 3.88535e-11 -2.79249e-10 -2.23259e-09 1.29743e-10 6.21876e-11
3560 1 0.000635 0.0023267 -0.0127 -0.009072 5.55905e-05 -0.000267588 7.72017e-05 2.12866e-10 2.41044e-10
3646 1 0.000635 0.0034168 -0.0133119 -0.00883502 -5.41636e-12 -2.43828e-10 -6.35949e-10 1.90684e-10 1.53369e-10
3733 1 0.000635 0.00452033 -0.012687 -0.00889347 -7.32795e-11 -4.77735e-12 5.48566e-10 1.35138e-10 2.19132e-11
3819 1 0.000635 0.00560984 -0.0132983 -0.00866148 8.13268e-12 -2.62493e-10 -4.10608e-10 4.02782e-11 1.47578e-11
3905 1 0.000635 0.00671383 -0.0126748 -0.00872862 1.31069e-11 -2.23865e-10 -7.32089e-10 6.16852e-11 1.01213e-11
3990 1 0.000635 0.00780397 -0.0132899 -0.00851323 -1.60589e-10 4.45487e-10 2.05168e-09 5.77851e-10 8.16808e-11
4076 1 0.000635 0.00890177 -0.0126521 -0.00852406 7.65526e-11 -8.26251e-11 -1.18055e-10 1.10506e-09 2.03831e-11
2784 1 0.000635 -0.00749269 -0.0119247 -0.00834172 -5.00461e-10 -9.88668e-10 -1.49656e-09 7.08884e-10 2.00847e-11
2870 1 0.000635 -0.00646341 -0.0114159 -0.00888299 8.02595e-11 8.87337e-11 6.32718e-10 7.76692e-10 2.88988e-11
2955 1 0.000635 -0.00536362 -0.012049 -0.00887412 2.6113e-11 5.1706e-11 3.35398e-10 8.5135e-10 3.90832e-11
3042 1 0.000635 -0.00427241 -0.01143 -0.009072 -4.53422e-06 5.54043e-05 -9.22949e-06 7.04061e-10 1.592e-11
3128 1 0.000635 -0.00317256 -0.012065 -0.009072 -3.61609e-05 8.51796e-05 -1.2292e-05 9.0601e-10 5.96297e-11
3215 1 0.000635 -0.0020727 -0.01143 -0.009072 2.7894e-08 -8.43621e-08 -3.52595e-06 1.18415e-10 5.17148e-36
3301 1 0.000635 -0.000972852 -0.012065 -0.009072 4.90012e-08 -5.36936e-06 -3.15443e-06 1.05761e-10 1.24963e-13
3388 1 0.000635 0.000127 -0.01143 -0.009072 5.50015e-09 0 -9.24032e-07 1.61643e-11 5.17148e-36
3474 1 0.000635 0.00122685 -0.012065 -0.009072 -3.24122e-08 4.16347e-06 -3.12032e-06 1.38808e-10 8.54483e-14
3561 1 0.000635 0.0023267 -0.01143 -0.009072 5.38026e-08 -6.27705e-08 -4.09857e-06 1.69347e-10 5.17148e-36
3647 1 0.000635 0.00342656 -0.012065 -0.009072 4.10111e-05 1.51957e-05 4.74672e-06 1.58964e-10 1.71103e-11
3734 1 0.000635 0.00452641 -0.01143 -0.009072 1.92458e-05 9.57661e-06 3.55331e-06 1.13374e-10 4.19654e-12
3820 1 0.000635 0.00562205 -0.0120566 -0.00892767 -1.6179e-10 2.3007e-10 1.89645e-09 1.00692e-10 5.23475e-12
3906 1 0.000635 0.00672313 -0.0114246 -0.0089539 -6.79537e-12 -1.31522e-10 -6.01021e-10 9.06411e-11 3.21916e-12
3991 1 0.000635 0.00781712 -0.0120492 -0.00879242 -5.13133e-11 2.18452e-11 3.99488e-10 8.5808e-10 6.79606e-11
4077 1 0.000635 0.00891602 -0.011412 -0.00879488 -7.83064e-11 2.37551e-11 4.92566e-10 8.07671e-10 1.05936e-11
4162 1 0.000635 0.00987371 -0.0119305 -0.00814176 3.58712e-10 -2.60892e-10 -3.98189e-10 1.43723e-09 5.17072e-11
2614 1 0.000635 -0.00970601 -0.0106861 -0.00842052 -1.40842e-12 -2.69416e-10 -3.29046e-10 7.63152e-10 1.4458e-10
2699 1 0.000635 -0.00859901 -0.0113038 -0.00837787 2.43325e-10 4.62503e-10 6.77765e-10 7.18141e-10 6.62361e-11
2785 1 0.000635 -0.00756353 -0.010783 -0.00889456 6.80903e-11 -2.74559e-11 1.1095e-10 7.33809e-10 4.25096e-11
2956 1 0.000635 -0.00537226 -0.010795 -0.009072 1.94032e-05 3.4197e-05 -7.31452e-06 6.03215e-10 5.07818e-12
3129 1 0.000635 -0.00317256 -0.010795 -0.009072 -1.32829e-08 -7.26981e-08 -3.52706e-06 1.1849e-10 6.46435e-36
3302 1 0.000635 -0.000972852 -0.010795 -0.009072 2.9114e-09 -1.69407e-21 -2.31635e-07 1.01441e-12 5.17148e-36
3475 1 0.000635 0.00122685 -0.010795 -0.009072 5.50513e-09 -1.69407e-21 -5.04022e-07 4.80413e-12 5.17148e-36
3648 1 0.000635 0.00342656 -0.010795 -0.009072 6.34558e-08 -3.92217e-08 -3.36362e-06 1.14252e-10 1.0343e-35
3821 1 0.000635 0.00562626 -0.010795 -0.009072 1.14922e-05 4.78342e-07 3.58926e-06 7.66324e-11 1.03398e-12
3992 1 0.000635 0.00782421 -0.0107924 -0.0089835 -6.93188e-11 4.07513e-11 6.21099e-10 4.41496e-10 4.15291e-11
4163 1 0.000635 0.00997478 -0.0107442 -0.00858096 2.20799e-10 -2.07259e-10 -4.36873e-10 9.21693e-10 2.69658e-11
2445 1 0.000635 -0.0119254 -0.00946683 -0.00853724 -9.64828e-12 -3.41234e-10 -1.74747e-10 1.20898e-09 2.24919e-10
2529 1 0.000635 -0.010815 -0.0100745 -0.00847476 -4.27791e-11 -4.07925e-10 -6.48147e-10 8.7922e-10 2.17965e-10
2615 1 0.000635 -0.00976356 -0.00951624 -0.00891371 8.19649e-11 3.45515e-11 3.49923e-10 7.84392e-10 9.65843e-11
2700 1 0.000635 -0.0086637 -0.0101499 -0.00890625 -1.58834e-11 -8.67817e-11 -3.93602e-10 7.2298e-10 6.82065e-11
2786 1 0.000635 -0.00757197 -0.009525 -0.009072 5.62853e-05 7.44648e-06 -5.39894e-06 4.85749e-10 2.23214e-11
2871 1 0.000635 -0.00647211 -0.01016 -0.009072 3.9255e-05 1.91824e-05 -6.17609e-06 5.40484e-10 9.70926e-12
2957 1 0.000635 -0.00537226 -0.009525 -0.009072 -4.88349e-08 -4.7448e-08 -3.31172e-06 1.04688e-10 3.74932e-35
3043 1 0.000635 -0.00427241 -0.01016 -0.009072 -3.5189e-08 -6.02083e-08 -3.45365e-06 1.13706e-10 2.71503e-35
3130 1 0.000635 -0.00317256 -0.009525 -0.009072 2.0671e-17 0 2.16e-11 1.05285e-24 6.46435e-36
3216 1 0.000635 -0.0020727 -0.01016 -0.009072 -6.77626e-21 0 2.16e-11 0 5.17148e-36
3303 1 0.000635 -0.000972852 -0.009525 -0.009072 0 0 2.16e-11 0 5.17148e-36
3389 1 0.000635 0.000127 -0.01016 -0.009072 0 0 2.16e-11 0 5.17148e-36
3476 1 0.000635 0.00122685 -0.009525 -0.009072 0 0 2.16e-11 0 5.17148e-36
3562 1 0.000635 0.0023267 -0.01016 -0.009072 0 0 2.16e-11 0 5.17148e-36
3649 1 0.000635 0.00342656 -0.009525 -0.009072 4.13115e-17 0 2.16e-11 0 1.0343e-35
3735 1 0.000635 0.00452641 -0.01016 -0.009072 3.97403e-08 -2.40152e-08 -2.61631e-06 6.77172e-11 3.10289e-35
3822 1 0.000635 0.00562626 -0.009525 -0.009072 3.11218e-08 -1.04525e-08 -2.05338e-06 4.22761e-11 3.74932e-35
3907 1 0.000635 0.00672611 -0.01016 -0.009072 1.26049e-05 -1.55637e-05 3.59143e-06 6.43578e-11 1.28369e-12
3993 1 0.000635 0.00782597 -0.009525 -0.009072 2.95843e-06 -2.8766e-05 1.47082e-06 1.9251e-10 3.36942e-12
4078 1 0.000635 0.00892449 -0.0101565 -0.00898511 -8.43309e-11 3.60588e-11 7.348e-10 8.33663e-10 3.82075e-11
4164 1 0.000635 0.0100155 -0.00951192 -0.00888328 1.767e-11 -7.89499e-11 -2.48887e-10 7.74518e-10 6.34254e-11
4249 1 0.000635 0.0109671 -0.010037 -0.00822556 -8.59087e-11 -3.05373e-11 -8.32326e-11 7.12589e-10 4.51242e-11
2193 1 0.000635 -0.0151359 -0.00887139 -0.00815164 1.69647e-10 -2.11288e-10 2.51241e-10 2.04451e-09 2.25425e-11
2277 1 0.000635 -0.0141467 -0.00824699 -0.00864482 1.23017e-10 -1.09133e-10 2.32648e-10 1.82289e-09 6.37933e-11
2361 1 0.000635 -0.0130357 -0.00885716 -0.00859148 -3.72821e-11 -4.47395e-10 -1.30276e-10 2.36227e-09 1.08689e-10
2446 1 0.000635 -0.0119649 -0.00825147 -0.00890552 1.73687e-10 6.08245e-11 1.48317e-09 1.24653e-09 1.01838e-11
2530 1 0.000635 -0.0108638 -0.00888369 -0.00891597 -3.23624e-11 -2.23903e-10 -3.59063e-10 1.05938e-09 3.37173e-11
2616 1 0.000635 -0.00977167 -0.008255 -0.009072 3.57885e-06 -5.28149e-05 7.40893e-06 3.32536e-10 1.95441e-11
2701 1 0.000635 -0.00867182 -0.00889 -0.009072 7.02129e-05 -3.33672e-06 -4.85567e-06 4.18364e-10 3.89009e-11
2787 1 0.000635 -0.00757197 -0.008255 -0.009072 -5.87318e-08 -2.70162e-08 -2.96202e-06 8.366e-11 4.0079e-35
2872 1 0.000635 -0.00647211 -0.00889 -0.009072 -5.60894e-08 -3.5787e-08 -3.13012e-06 9.3583e-11 3.74932e-35
2958 1 0.000635 -0.00537226 -0.008255 -0.009072 1.44607e-16 -7.15799e-17 2.16e-11 5.26426e-25 4.0079e-35
3044 1 0.000635 -0.00427241 -0.00889 -0.009072 -1.03289e-16 -4.76841e-17 2.16e-11 1.05285e-24 2.71503e-35
3131 1 0.000635 -0.00317256 -0.008255 -0.009072 3.09912e-17 -7.75431e-17 2.16e-11 5.26426e-25 1.87466e-35
3217 1 0.000635 -0.0020727 -0.00889 -0.009072 -3.38813e-21 -4.76866e-17 2.16e-11 0 5.17148e-36
3304 1 0.000635 -0.000972852 -0.008255 -0.009072 0 -7.15833e-17 2.16e-11 0 1.0343e-35
3390 1 0.000635 0.000127 -0.00889 -0.009072 0 -4.76866e-17 2.16e-11 0 5.17148e-36
3477 1 0.000635 0.00122685 -0.008255 -0.009072 0 -7.15833e-17 2.16e-11 0 1.0343e-35
3563 1 0.000635 0.0023267 -0.00889 -0.009072 0 -4.76858e-17 2.16e-11 0 5.17148e-36
3650 1 0.000635 0.00342656 -0.008255 -0.009072 4.13098e-17 -7.15825e-17 2.16e-11 0 1.0343e-35
3736 1 0.000635 0.00452641 -0.00889 -0.009072 4.13115e-17 -4.76841e-17 2.16e-11 0 3.10289e-35
3823 1 0.000635 0.00562626 -0.008255 -0.009072 -1.446e-16 -7.15791e-17 2.16e-11 0 4.0079e-35
3908 1 0.000635 0.00672611 -0.00889 -0.009072 1.57811e-08 -1.82733e-08 -1.80767e-06 3.16712e-11 1.68073e-35
3994 1 0.000635 0.00782597 -0.008255 -0.009072 -1.20386e-08 -4.77174e-08 -2.44628e-06 6.4329e-11 1.0343e-35
4079 1 0.000635 0.00892582 -0.00889 -0.009072 -5.73184e-05 6.30131e-05 -1.33818e-05 4.63037e-10 2.47534e-11
4165 1 0.000635 0.0100257 -0.008255 -0.009072 0.000172741 2.44426e-05 3.86989e-05 6.41294e-10 1.66476e-10
4250 1 0.000635 0.0110668 -0.00884211 -0.00864152 4.07336e-11 -7.78118e-11 -4.45517e-10 8.12434e-10 2.9447e-11
4335 1 0.000635 0.0120879 -0.00815158 -0.00833672 -2.07602e-09 1.30939e-09 2.81923e-09 7.34606e-10 1.27008e-11
2194 1 0.000635 -0.0151938 -0.00761286 -0.00830756 7.8569e-10 -9.47077e-11 1.93085e-09 1.03153e-09 1.14081e-10
2278 1 0.000635 -0.0141378 -0.0069785 -0.00862424 -4.53154e-10 2.05541e-11 -1.77815e-09 1.56327e-09 1.20823e-10
2362 1 0.000635 -0.0130644 -0.00761655 -0.00885934 3.28733e-10 5.90881e-11 2.20779e-09 1.18988e-09 3.95995e-11
2447 1 0.000635 -0.0119699 -0.00698472 -0.00899529 1.82719e-10 6.78814e-11 1.68647e-09 1.98861e-10 2.59957e-11
2531 1 0.000635 -0.0108713 -0.00761999 -0.00904335 8.75565e-11 -6.86388e-12 1.17981e-09 2.49042e-10 3.77719e-12
2617 1 0.000635 -0.00977167 -0.006985 -0.009072 -7.31206e-06 -4.18323e-06 -1.99905e-06 5.79091e-11 3.16808e-13
2702 1 0.000635 -0.00867182 -0.00762 -0.009072 -6.45383e-08 -1.21438e-08 -2.83724e-06 7.65418e-11 2.9736e-35
2788 1 0.000635 -0.00757197 -0.006985 -0.009072 1.44605e-16 -2.38958e-17 2.16e-11 0 4.0079e-35
2873 1 0.000635 -0.00647211 -0.00762 -0.009072 -1.44609e-16 2.38967e-17 2.16e-11 0 4.0079e-35
2959 1 0.000635 -0.00537226 -0.006985 -0.009072 1.44605e-16 -2.38958e-17 2.16e-11 0 4.0079e-35
3045 1 0.000635 -0.00427241 -0.00762 -0.009072 -1.13623e-16 2.98573e-17 2.16e-11 0 2.90896e-35
3132 1 0.000635 -0.00317256 -0.006985 -0.009072 3.09912e-17 -2.98573e-17 2.16e-11 0 1.87466e-35
3218 1 0.000635 -0.0020727 -0.00762 -0.009072 -1.69407e-21 2.38958e-17 2.16e-11 0 1.0343e-35
3305 1 0.000635 -0.000972852 -0.006985 -0.009072 0 -2.38967e-17 2.16e-11 0 1.0343e-35
3391 1 0.000635 0.000127 -0.00762 -0.009072 0 2.38967e-17 2.16e-11 0 1.0343e-35
3478 1 0.000635 0.00122685 -0.006985 -0.009072 0 -2.38967e-17 2.16e-11 0 1.0343e-35
3564 1 0.000635 0.0023267 -0.00762 -0.009072 0 2.38967e-17 2.16e-11 0 1.0343e-35
3651 1 0.000635 0.00342656 -0.006985 -0.009072 4.13081e-17 -2.38967e-17 2.16e-11 0 1.0343e-35
3737 1 0.000635 0.00452641 -0.00762 -0.009072 4.13217e-17 2.38958e-17 2.16e-11 0 2.06859e-35
3824 1 0.000635 0.00562626 -0.006985 -0.009072 -1.44599e-16 -2.3895e-17 2.16e-11 0 4.0079e-35
3909 1 0.000635 0.00672611 -0.00762 -0.009072 6.19757e-17 2.38958e-17 2.16e-11 0 2.9736e-35
3995 1 0.000635 0.00782597 -0.006985 -0.009072 -6.77626e-21 -2.38967e-17 2.16e-11 0 1.0343e-35
4080 1 0.000635 0.00892582 -0.00762 -0.009072 -4.15417e-08 -9.22735e-08 -4.56207e-06 2.91881e-10 1.0343e-35
4166 1 0.000635 0.0100257 -0.006985 -0.009072 -5.81443e-05 3.33689e-05 -1.06435e-05 5.02259e-10 2.08318e-11
4251 1 0.000635 0.0111212 -0.00761547 -0.00896208 1.76091e-10 -1.84313e-10 -1.73637e-09 7.71472e-10 2.42854e-10
4336 1 0.000635 0.012194 -0.00696081 -0.00876567 -1.59904e-11 -9.44238e-11 -3.24542e-10 8.94364e-10 1.48152e-10
2195 1 0.000635 -0.0151736 -0.00634486 -0.0082517 -2.37088e-10 -1.97242e-11 -1.09989e-09 1.15288e-10 4.65242e-11
2279 1 0.000635 -0.014118 -0.0057107 -0.008567 -8.56589e-10 7.70548e-11 -3.0592e-09 6.58547e-11 6.38253e-11
2363 1 0.000635 -0.0130603 -0.00634724 -0.0088633 4.17355e-11 4.06692e-11 2.33475e-10 2.10692e-10 5.48233e-11
2448 1 0.000635 -0.0119708 -0.00571531 -0.00903411 -2.23537e-10 -4.30486e-11 -2.46268e-09 1.08281e-10 4.01044e-11
2532 1 0.000635 -0.0108715 -0.00635 -0.009072 -3.93472e-05 -4.62351e-05 3.14673e-06 6.39664e-11 1.36287e-11
2618 1 0.000635 -0.00977167 -0.005715 -0.009072 -2.06453e-09 3.57587e-09 -6.75989e-07 8.64425e-12 6.85221e-35
2703 1 0.000635 -0.00867182 -0.00635 -0.009072 -3.92742e-10 6.80249e-10 -2.52587e-07 1.20605e-12 2.9736e-35
2789 1 0.000635 -0.00757197 -0.005715 -0.009072 1.44602e-16 4.76832e-17 2.16e-11 0 3.74932e-35
2874 1 0.000635 -0.00647211 -0.00635 -0.009072 -1.44609e-16 7.15816e-17 2.16e-11 0 4.0079e-35
2960 1 0.000635 -0.00537226 -0.005715 -0.009072 1.44604e-16 4.76841e-17 2.16e-11 5.26426e-25 3.74932e-35
3046 1 0.000635 -0.00427241 -0.00635 -0.009072 -1.13621e-16 7.75431e-17 2.16e-11 0 2.90896e-35
3133 1 0.000635 -0.00317256 -0.005715 -0.009072 2.0671e-17 4.76858e-17 2.16e-11 5.26426e-25 6.46435e-36
3219 1 0.000635 -0.0020727 -0.00635 -0.009072 -5.0822e-21 7.15842e-17 2.16e-11 0 1.0343e-35
3306 1 0.000635 -0.000972852 -0.005715 -0.009072 0 4.76866e-17 2.16e-11 0 5.17148e-36
3392 1 0.000635 0.000127 -0.00635 -0.009072 0 7.1585e-17 2.16e-11 0 1.0343e-35
3479 1 0.000635 0.00122685 -0.005715 -0.009072 0 4.76866e-17 2.16e-11 0 5.17148e-36
3565 1 0.000635 0.0023267 -0.00635 -0.009072 0 7.15842e-17 2.16e-11 0 1.0343e-35
3652 1 0.000635 0.00342656 -0.005715 -0.009072 4.13098e-17 4.76858e-17 2.16e-11 0 1.0343e-35
3738 1 0.000635 0.00452641 -0.00635 -0.009072 4.13183e-17 7.15816e-17 2.16e-11 0 2.06859e-35
3825 1 0.000635 0.00562626 -0.005715 -0.009072 -1.44597e-16 4.76841e-17 2.16e-11 0 3.74932e-35
3910 1 0.000635 0.00672611 -0.00635 -0.009072 6.19774e-17 7.15825e-17 2.16e-11 0 2.9736e-35
3996 1 0.000635 0.00782597 -0.005715 -0.009072 -6.77626e-21 4.76849e-17 2.16e-11 0 5.17148e-36
4081 1 0.000635 0.00892582 -0.00635 -0.009072 -7.79611e-09 -1.35033e-08 -9.70347e-07 1.78324e-11 1.0343e-35
4167 1 0.000635 0.0100257 -0.005715 -0.009072 -2.33298e-08 -4.04084e-08 -2.70517e-06 1.40414e-10 6.85221e-35
4252 1 0.000635 0.0111255 -0.00635 -0.009072 -0.000152548 -1.3523e-05 -2.34502e-05 7.01057e-10 7.41269e-11
4337 1 0.000635 0.012223 -0.00571592 -0.0090248 2.47535e-11 -3.5552e-11 -2.97354e-10 9.64664e-10 1.76128e-10
4421 1 0.000635 0.0132167 -0.00627074 -0.00846291 -1.37288e-10 -7.69327e-11 -6.27949e-11 1.56103e-09 2.84591e-11
2196 1 0.000635 -0.0151517 -0.00507705 -0.00819002 -4.19568e-10 -3.75405e-11 -1.61987e-09 1.5071e-11 1.69462e-11
2364 1 0.000635 -0.0130522 -0.00507766 -0.00884901 3.93134e-11 -9.0322e-12 -4.01689e-11 1.50196e-10 1.15697e-10
2533 1 0.000635 -0.0108715 -0.00508 -0.009072 -9.35902e-06 -5.4743e-06 -2.60727e-06 1.19537e-10 5.21342e-13
2704 1 0.000635 -0.00867182 -0.00508 -0.009072 -6.19774e-17 -2.3845e-17 2.16e-11 0 1.42216e-35
2875 1 0.000635 -0.00647211 -0.00508 -0.009072 -1.44605e-16 -2.38442e-17 2.16e-11 0 3.49075e-35
3047 1 0.000635 -0.00427241 -0.00508 -0.009072 -1.03287e-16 -2.38433e-17 2.16e-11 1.57928e-24 2.45645e-35
3220 1 0.000635 -0.0020727 -0.00508 -0.009072 -3.38813e-21 -2.38442e-17 2.16e-11 0 2.58574e-36
3393 1 0.000635 0.000127 -0.00508 -0.009072 0 -2.38442e-17 2.16e-11 0 2.58574e-36
3566 1 0.000635 0.0023267 -0.00508 -0.009072 -3.38813e-21 -2.38459e-17 2.16e-11 0 2.58574e-36
3739 1 0.000635 0.00452641 -0.00508 -0.009072 4.13081e-17 -2.38433e-17 2.16e-11 5.26426e-25 2.84431e-35
3911 1 0.000635 0.00672611 -0.00508 -0.009072 6.19859e-17 -2.38442e-17 2.16e-11 0 1.42216e-35
4082 1 0.000635 0.00892582 -0.00508 -0.009072 -8.47033e-21 -2.3845e-17 2.16e-11 0 2.58574e-36
4253 1 0.000635 0.0111255 -0.00508 -0.009072 -3.21615e-05 1.84049e-05 -7.4066e-06 4.68688e-10 6.32822e-12
4422 1 0.000635 0.0133115 -0.00507825 -0.00889164 -4.73954e-11 2.22496e-11 2.07444e-10 1.23315e-09 5.43814e-11
4506 1 0.000635 0.0141273 -0.00550624 -0.00801868 2.65731e-10 -4.1426e-10 -3.16563e-10 2.08566e-09 4.78342e-11
2197 1 0.000635 -0.015137 -0.00380833 -0.00814888 -2.41616e-09 1.17301e-10 -7.12519e-09 5.56573e-12 1.21877e-11
2280 1 0.000635 -0.0141011 -0.00444267 -0.00851871 -1.11136e-09 7.91278e-11 -3.58594e-09 4.45848e-11 3.00152e-11
2365 1 0.000635 -0.0130437 -0.00380902 -0.00882585 3.24002e-10 -1.51923e-11 1.28112e-09 2.00818e-10 3.16562e-11
2449 1 0.000635 -0.0119714 -0.004445 -0.009072 -0.000132783 -8.41616e-05 3.73773e-05 1.8159e-10 7.88779e-11
2534 1 0.000635 -0.0108715 -0.00381 -0.009072 -9.32081e-08 -4.74016e-08 -4.08484e-06 1.59609e-10 4.65433e-35
2619 1 0.000635 -0.00977167 -0.004445 -0.009072 -2.50751e-09 4.34314e-09 -3.34123e-07 2.11091e-12 6.01185e-35
2705 1 0.000635 -0.00867182 -0.00381 -0.009072 -8.2623e-17 0 2.16e-11 1.05285e-24 2.06859e-35
2790 1 0.000635 -0.00757197 -0.004445 -0.009072 1.44602e-16 -5.96282e-17 2.16e-11 5.26426e-25 3.74932e-35
2876 1 0.000635 -0.00647211 -0.00381 -0.009072 -1.44605e-16 0 2.16e-11 0 3.23218e-35
2961 1 0.000635 -0.00537226 -0.004445 -0.009072 1.44604e-16 -5.9629e-17 2.16e-11 5.26426e-25 3.74932e-35
3048 1 0.000635 -0.00427241 -0.00381 -0.009072 -1.03291e-16 0 2.16e-11 0 1.68073e-35
3134 1 0.000635 -0.00317256 -0.004445 -0.009072 3.09963e-17 -5.36693e-17 2.16e-11 1.57928e-24 8.40366e-36
3221 1 0.000635 -0.0020727 -0.00381 -0.009072 -6.77626e-21 0 2.16e-11 2.10571e-24 0
3307 1 0.000635 -0.000972852 -0.004445 -0.009072 0 -4.77053e-17 2.16e-11 1.05285e-24 5.17148e-36
3394 1 0.000635 0.000127 -0.00381 -0.009072 0 0 2.16e-11 1.05285e-24 0
3480 1 0.000635 0.00122685 -0.004445 -0.009072 0 -4.77053e-17 2.16e-11 1.05285e-24 5.17148e-36
3567 1 0.000635 0.0023267 -0.00381 -0.009072 0 0 2.16e-11 2.10571e-24 0
3653 1 0.000635 0.00342656 -0.004445 -0.009072 3.09811e-17 -5.36701e-17 2.16e-11 1.05285e-24 8.40366e-36
3740 1 0.000635 0.00452641 -0.00381 -0.009072 4.13217e-17 7.70372e-34 2.16e-11 0 1.29287e-35
3826 1 0.000635 0.00562626 -0.004445 -0.009072 -1.44597e-16 -5.9629e-17 2.16e-11 5.26426e-25 3.74932e-35
3912 1 0.000635 0.00672611 -0.00381 -0.009072 8.26298e-17 0 2.16e-11 1.05285e-24 2.06859e-35
3997 1 0.000635 0.00782597 -0.004445 -0.009072 -3.38813e-21 -4.77061e-17 2.16e-11 1.05285e-24 5.17148e-36
4083 1 0.000635 0.00892582 -0.00381 -0.009072 -6.77626e-21 0 2.16e-11 1.05285e-24 0
4168 1 0.000635 0.0100257 -0.004445 -0.009072 8.65239e-09 1.49864e-08 -4.16459e-07 3.28471e-12 6.01185e-35
4254 1 0.000635 0.0111255 -0.00381 -0.009072 5.27813e-08 -9.72073e-09 -3.07197e-06 8.98159e-11 4.65433e-35
4338 1 0.000635 0.0122254 -0.004445 -0.009072 7.77583e-05 -6.09201e-05 1.19231e-05 1.03642e-09 7.65326e-11
4423 1 0.000635 0.0133164 -0.00380887 -0.00892422 1.9543e-10 5.08098e-12 -1.14368e-09 7.02646e-10 8.14072e-11
4507 1 0.000635 0.0143855 -0.00444203 -0.00866101 -1.08283e-10 7.30475e-11 4.132e-10 1.16821e-09 1.64032e-11
4591 1 0.000635 0.0154495 -0.0038075 -0.00838232 -2.34795e-10 1.09928e-10 8.64187e-10 6.93508e-10 2.17512e-11
2198 1 0.000635 -0.0151319 -0.00253896 -0.00813555 -8.68129e-10 4.99463e-11 -2.59497e-09 5.53933e-12 1.00627e-11
2281 1 0.000635 -0.0140936 -0.00317369 -0.0084985 -7.60368e-11 1.7234e-11 -1.60031e-10 2.88096e-11 1.63782e-11
2366 1 0.000635 -0.0130448 -0.0025395 -0.00883138 3.68031e-10 -7.28675e-12 1.37068e-09 2.02373e-10 6.98251e-12
2450 1 0.000635 -0.0119714 -0.003175 -0.009072 -7.75601e-06 1.66826e-05 8.65375e-06 1.97142e-10 2.75243e-12
2535 1 0.000635 -0.0108715 -0.00254 -0.009072 -1.14784e-07 -1.11766e-09 -4.26667e-06 1.74166e-10 6.33506e-35
2620 1 0.000635 -0.00977167 -0.003175 -0.009072 -1.3427e-16 4.1748e-17 2.16e-11 5.26426e-25 5.81792e-35
2706 1 0.000635 -0.00867182 -0.00254 -0.009072 -7.2301e-17 -5.97417e-18 2.16e-11 0 1.61609e-35
2791 1 0.000635 -0.00757197 -0.003175 -0.009072 1.44602e-16 4.77053e-17 2.16e-11 5.26426e-25 3.55539e-35
2877 1 0.000635 -0.00647211 -0.00254 -0.009072 -1.44605e-16 -1.19365e-17 2.16e-11 0 3.23218e-35
2962 1 0.000635 -0.00537226 -0.003175 -0.009072 1.44604e-16 4.7707e-17 2.16e-11 0 3.55539e-35
3049 1 0.000635 -0.00427241 -0.00254 -0.009072 -1.03284e-16 -1.19373e-17 2.16e-11 5.26426e-25 1.93931e-35
3135 1 0.000635 -0.00317256 -0.003175 -0.009072 3.09963e-17 4.17472e-17 2.16e-11 1.05285e-24 6.46435e-36
3222 1 0.000635 -0.0020727 -0.00254 -0.009072 0 -1.43996e-20 2.16e-11 0 0
3308 1 0.000635 -0.000972852 -0.003175 -0.009072 0 3.57823e-17 2.16e-11 1.05285e-24 3.23218e-36
3395 1 0.000635 0.000127 -0.00254 -0.009072 0 -1.35525e-20 2.16e-11 0 0
3481 1 0.000635 0.00122685 -0.003175 -0.009072 0 3.57823e-17 2.16e-11 1.05285e-24 3.23218e-36
3568 1 0.000635 0.0023267 -0.00254 -0.009072 -6.77626e-21 -1.35525e-20 2.16e-11 0 0
3654 1 0.000635 0.00342656 -0.003175 -0.009072 3.09777e-17 4.17463e-17 2.16e-11 1.05285e-24 6.46435e-36
3741 1 0.000635 0.00452641 -0.00254 -0.009072 4.13115e-17 -1.19382e-17 2.16e-11 5.26426e-25 1.93931e-35
3827 1 0.000635 0.00562626 -0.003175 -0.009072 -1.44595e-16 4.77053e-17 2.16e-11 5.26426e-25 3.55539e-35
3913 1 0.000635 0.00672611 -0.00254 -0.009072 7.23095e-17 -5.97502e-18 2.16e-11 0 1.61609e-35
3998 1 0.000635 0.00782597 -0.003175 -0.009072 0 3.57823e-17 2.16e-11 1.05285e-24 3.23218e-36
4084 1 0.000635 0.00892582 -0.00254 -0.009072 -8.47033e-21 -1.27055e-20 2.16e-11 0 0
4169 1 0.000635 0.0100257 -0.003175 -0.009072 1.3427e-16 4.1748e-17 2.16e-11 5.26426e-25 5.81792e-35
4255 1 0.000635 0.0111255 -0.00254 -0.009072 4.6397e-08 -2.76568e-08 -2.84538e-06 7.74594e-11 6.33506e-35
4339 1 0.000635 0.0122254 -0.003175 -0.009072 5.29837e-05 9.19359e-06 1.12814e-05 1.06279e-10 9.48543e-12
4424 1 0.000635 0.0133129 -0.00253949 -0.00890393 5.40863e-11 1.27323e-11 -3.60077e-10 1.19942e-10 1.84856e-11
4508 1 0.000635 0.0143938 -0.00317328 -0.0086949 -1.4768e-10 3.92067e-11 5.63972e-10 8.49616e-10 9.48396e-11
4592 1 0.000635 0.0154553 -0.00253858 -0.00839978 3.68362e-10 7.10126e-11 -1.18533e-09 3.63465e-10 7.2249e-11
4674 1 0.000635 0.0164996 -0.00317359 -0.00805178 -2.56172e-10 1.16133e-10 8.77588e-10 5.92529e-10 2.72803e-11
2199 1 0.000635 -0.0151311 -0.00126949 -0.00813425 -4.33825e-10 3.41894e-11 -1.46507e-09 4.74364e-12 8.97351e-12
2282 1 0.000635 -0.0140937 -0.00190431 -0.00850015 -1.72291e-10 2.73073e-11 -5.96608e-10 3.22116e-11 9.995e-12
2367 1 0.000635 -0.0130454 -0.00126978 -0.00883436 -1.28591e-10 -5.03426e-12 -5.45443e-10 2.00261e-10 3.53693e-12
2451 1 0.000635 -0.0119714 -0.001905 -0.009072 -6.72625e-06 1.0423e-05 8.29372e-06 1.975e-10 1.15401e-12
2536 1 0.000635 -0.0108715 -0.00127 -0.009072 -1.12987e-07 -1.33032e-10 -4.21196e-06 1.6964e-10 6.33506e-35
2621 1 0.000635 -0.00977167 -0.001905 -0.009072 -1.44592e-16 -1.19229e-17 2.16e-11 5.26426e-25 6.39971e-35
2707 1 0.000635 -0.00867182 -0.00127 -0.009072 -7.2301e-17 5.96909e-18 2.16e-11 5.26426e-25 1.61609e-35
2792 1 0.000635 -0.00757197 -0.001905 -0.009072 1.44605e-16 -1.19229e-17 2.16e-11 0 3.29682e-35
2878 1 0.000635 -0.00647211 -0.00127 -0.009072 -1.44605e-16 1.19331e-17 2.16e-11 0 3.23218e-35
2963 1 0.000635 -0.00537226 -0.001905 -0.009072 1.44602e-16 -1.19246e-17 2.16e-11 0 3.29682e-35
3050 1 0.000635 -0.00427241 -0.00127 -0.009072 -1.13613e-16 5.96993e-18 2.16e-11 0 2.13324e-35
3136 1 0.000635 -0.00317256 -0.001905 -0.009072 4.13081e-17 -1.19229e-17 2.16e-11 0 5.81792e-36
3223 1 0.000635 -0.0020727 -0.00127 -0.009072 0 7.6233e-21 2.16e-11 0 0
3309 1 0.000635 -0.000972852 -0.001905 -0.009072 0 -1.19229e-17 2.16e-11 0 6.46435e-37
3396 1 0.000635 0.000127 -0.00127 -0.009072 0 6.77626e-21 2.16e-11 0 0
3482 1 0.000635 0.00122685 -0.001905 -0.009072 0 -1.19229e-17 2.16e-11 0 6.46435e-37
3569 1 0.000635 0.0023267 -0.00127 -0.009072 -6.77626e-21 6.77626e-21 2.16e-11 0 0
3655 1 0.000635 0.00342656 -0.001905 -0.009072 2.06608e-17 -1.19229e-17 2.16e-11 0 1.93931e-36
3742 1 0.000635 0.00452641 -0.00127 -0.009072 4.13149e-17 1.19331e-17 2.16e-11 5.26426e-25 1.93931e-35
3828 1 0.000635 0.00562626 -0.001905 -0.009072 -1.44599e-16 -1.19229e-17 2.16e-11 0 3.29682e-35
3914 1 0.000635 0.00672611 -0.00127 -0.009072 7.23078e-17 5.96909e-18 2.16e-11 5.26426e-25 1.61609e-35
3999 1 0.000635 0.00782597 -0.001905 -0.009072 -6.77626e-21 -1.19229e-17 2.16e-11 5.26426e-25 6.46435e-37
4085 1 0.000635 0.00892582 -0.00127 -0.009072 -6.77626e-21 6.77626e-21 2.16e-11 0 0
4170 1 0.000635 0.0100257 -0.001905 -0.009072 1.44599e-16 -1.19229e-17 2.16e-11 0 6.39971e-35
4256 1 0.000635 0.0111255 -0.00127 -0.009072 5.61368e-08 -9.56983e-09 -3.02984e-06 8.73045e-11 6.33506e-35
4340 1 0.000635 0.0122254 -0.001905 -0.009072 2.20579e-05 1.05059e-06 8.49458e-06 9.90049e-11 1.56166e-12
4425 1 0.000635 0.0133114 -0.00126981 -0.00889707 1.6949e-10 1.06031e-11 -8.43713e-10 1.0928e-10 3.42787e-12
4509 1 0.000635 0.0143859 -0.00190432 -0.00865983 3.75582e-11 2.09751e-11 -1.23011e-10 4.13777e-11 1.4945e-11
4593 1 0.000635 0.0154463 -0.00126954 -0.00836562 -1.37963e-10 1.1456e-11 6.02987e-10 2.11712e-11 1.03653e-11
4675 1 0.000635 0.0165045 -0.0019043 -0.00806437 -6.88726e-12 5.22735e-11 1.84719e-10 1.10014e-10 3.48224e-11
2283 1 0.000635 -0.0140943 -0.000634785 -0.00850246 -6.22634e-10 9.96455e-12 -2.12925e-09 3.29434e-11 7.63126e-12
2368 1 0.000635 -0.0130456 1.39894e-16 -0.00883503 -3.61805e-10 1.88483e-14 -1.46104e-09 1.99936e-10 2.77684e-12
2452 1 0.000635 -0.0119714 -0.000635 -0.009072 -8.97054e-06 3.14438e-06 8.68159e-06 1.96556e-10 3.75226e-13
2622 1 0.000635 -0.00977167 -0.000635 -0.009072 -1.44599e-16 -8.47033e-21 2.16e-11 0 6.33506e-35
2793 1 0.000635 -0.00757197 -0.000635 -0.009072 1.44604e-16 -1.19339e-17 2.16e-11 5.26426e-25 3.23218e-35
2964 1 0.000635 -0.00537226 -0.000635 -0.009072 1.44604e-16 -1.19365e-17 2.16e-11 0 3.23218e-35
3137 1 0.000635 -0.00317256 -0.000635 -0.009072 4.13183e-17 -8.47033e-21 2.16e-11 0 5.17148e-36
3310 1 0.000635 -0.000972852 -0.000635 -0.009072 0 -8.47033e-21 2.16e-11 0 0
3483 1 0.000635 0.00122685 -0.000635 -0.009072 0 -8.47033e-21 2.16e-11 0 0
3656 1 0.000635 0.00342656 -0.000635 -0.009072 3.09811e-17 -5.97078e-18 2.16e-11 5.26426e-25 3.23218e-36
3829 1 0.000635 0.00562626 -0.000635 -0.009072 -1.44597e-16 -1.19339e-17 2.16e-11 5.26426e-25 3.23218e-35
4000 1 0.000635 0.00782597 -0.000635 -0.009072 0 -8.47033e-21 2.16e-11 0 0
4171 1 0.000635 0.0100257 -0.000635 -0.009072 1.44599e-16 -8.47033e-21 2.16e-11 0 6.33506e-35
4341 1 0.000635 0.0122254 -0.000635 -0.009072 7.16193e-06 8.0443e-07 6.11399e-06 1.05929e-10 1.78235e-13
4510 1 0.000635 0.0143818 -0.00063482 -0.00864334 -1.56526e-11 -8.48074e-12 1.67011e-10 2.46141e-11 4.7269e-12
4676 1 0.000635 0.0164983 -0.000634849 -0.00804259 -1.83193e-10 1.11561e-11 7.67378e-10 1.13436e-11 6.55357e-12
2200 1 0.000635 -0.0151311 -1.81406e-15 -0.00813467 -1.41699e-10 -9.0522e-14 -7.18932e-10 4.71496e-12 8.64824e-12
2284 1 0.000635 -0.0140943 0.000634785 -0.00850246 -6.22603e-10 -1.00042e-11 -2.12926e-09 3.29434e-11 7.63126e-12