ITEM: TIMESTEP
1860000
ITEM: NUMBER OF ATOMS
6793
ITEM: BOX BOUNDS ff ff ff
-8.9999999999999997e-02 8.9999999999999997e-02
-8.9999999999999997e-02 8.9999999999999997e-02
-4.0000000000000001e-02 4.0000000000000001e-02
ITEM: ATOMS id type radius x y z fx fy fz c_bendingE c_stretchingE
3385 1 0.000635 0.00011398 -0.015174 -0.019561 5.05269e-10 -2.33654e-10 -1.56748e-09 3.75804e-09 6.76417e-11
3213 1 0.000635 -0.00207211 -0.0139547 -0.0199007 -3.38003e-11 2.10593e-10 2.61686e-10 6.25001e-09 3.67687e-10
3299 1 0.000635 -0.000974653 -0.0145867 -0.0198429 9.66103e-11 2.77133e-10 4.44608e-10 5.74172e-09 1.1206e-10
3386 1 0.000635 0.000125609 -0.0139626 -0.0199463 1.52258e-10 -3.06326e-10 -2.15779e-09 4.17889e-09 4.13446e-11
3472 1 0.000635 0.00120465 -0.0145262 -0.019585 -2.54196e-10 8.29833e-10 1.19586e-09 1.97265e-09 1.53747e-10
3559 1 0.000635 0.00228296 -0.0138572 -0.0195621 -9.36557e-10 1.88697e-09 3.48779e-09 7.72193e-10 1.94328e-10
3041 1 0.000635 -0.0042673 -0.0126872 -0.0199166 3.13834e-11 4.32061e-10 2.3958e-09 4.09084e-09 1.37829e-10
3127 1 0.000635 -0.00316909 -0.0133206 -0.0199126 -4.48423e-10 1.7012e-10 1.93556e-10 4.8194e-09 3.56934e-10
3214 1 0.000635 -0.0020727 -0.0127 -0.020088 -9.57373e-05 1.56453e-05 -7.62613e-06 5.40858e-09 8.16403e-11
3300 1 0.000635 -0.000973361 -0.0133355 -0.0200617 3.66824e-11 -6.83789e-11 -1.09259e-09 4.26505e-09 5.48224e-11
3387 1 0.000635 0.000127 -0.0127 -0.020088 -5.48964e-05 -5.23429e-05 1.10073e-06 4.13487e-10 1.73628e-11
3473 1 0.000635 0.00122575 -0.0133335 -0.0200264 1.24111e-10 -2.50093e-10 -1.9283e-09 5.23714e-10 1.51376e-10
3560 1 0.000635 0.0023267 -0.0127 -0.020088 8.7126e-05 -0.000231239 0.000122208 6.50014e-10 2.81272e-10
3646 1 0.000635 0.0033999 -0.0132781 -0.0197186 -2.0812e-10 1.6344e-10 3.47246e-10 6.28811e-10 3.35532e-10
3733 1 0.000635 0.00450981 -0.0126671 -0.0198047 -3.27155e-11 -3.16283e-12 -5.5909e-10 4.05092e-10 5.00927e-11
3905 1 0.000635 0.00668824 -0.0126205 -0.0194993 -2.28345e-10 3.47647e-10 6.09531e-10 1.87779e-10 5.10022e-12
2870 1 0.000635 -0.00646477 -0.0114191 -0.0199204 1.72064e-10 2.14464e-11 6.26941e-10 3.22087e-09 5.71866e-11
2955 1 0.000635 -0.0053659 -0.0120533 -0.0199191 2.50433e-10 2.56807e-10 2.05617e-09 3.5796e-09 6.33587e-11
3042 1 0.000635 -0.00427241 -0.01143 -0.020088 -4.70501e-07 6.25139e-05 -1.86535e-05 3.23097e-09 1.91975e-11
3128 1 0.000635 -0.00317256 -0.012065 -0.020088 -4.17851e-05 9.34087e-05 -2.13101e-05 4.0123e-09 7.42958e-11
3215 1 0.000635 -0.0020727 -0.01143 -0.020088 3.24301e-08 -6.52375e-08 -3.16449e-06 9.54082e-11 5.17148e-36
3301 1 0.000635 -0.000972852 -0.012065 -0.020088 2.54466e-08 -4.14898e-05 -2.46627e-06 1.07027e-10 7.78468e-12
3388 1 0.000635 0.000127 -0.01143 -0.020088 1.22641e-08 -3.38813e-21 -1.24936e-06 2.95936e-11 5.17148e-36
3474 1 0.000635 0.00122685 -0.012065 -0.020088 -3.02778e-09 -1.85045e-06 -5.69492e-06 4.33181e-10 9.45692e-15
3561 1 0.000635 0.0023267 -0.01143 -0.020088 2.96365e-07 -1.53898e-07 -7.12738e-06 5.47266e-10 5.17148e-36
3647 1 0.000635 0.00342656 -0.012065 -0.020088 6.35393e-05 5.07338e-05 -2.37752e-06 4.85274e-10 5.98125e-11
3734 1 0.000635 0.00452641 -0.01143 -0.020088 2.60298e-05 2.53274e-05 1.77326e-06 3.28399e-10 1.1589e-11
3820 1 0.000635 0.0056152 -0.0120439 -0.0198602 1.72788e-10 -4.12147e-10 -2.07338e-09 3.17552e-10 1.22497e-11
3906 1 0.000635 0.00671847 -0.0114157 -0.0198995 -5.73655e-12 -5.40757e-11 -4.83509e-10 2.6316e-10 5.30804e-12
3991 1 0.000635 0.00779799 -0.0120098 -0.0195913 -7.50876e-11 -2.36353e-10 -7.13411e-10 2.85342e-09 7.62674e-11
2785 1 0.000635 -0.00756364 -0.0107844 -0.019919 -4.86069e-11 -1.28111e-10 -6.86249e-10 2.96957e-09 8.30455e-11
2956 1 0.000635 -0.00537226 -0.010795 -0.020088 3.03184e-05 3.76193e-05 -1.65018e-05 2.68414e-09 8.74605e-12
3129 1 0.000635 -0.00317256 -0.010795 -0.020088 1.87873e-11 -5.3151e-08 -3.03929e-06 8.78123e-11 6.46435e-36
3302 1 0.000635 -0.000972852 -0.010795 -0.020088 4.48109e-09 1.69407e-21 -2.31873e-07 1.01671e-12 5.17148e-36
3475 1 0.000635 0.00122685 -0.010795 -0.020088 9.75262e-09 0 -5.42868e-07 5.57475e-12 5.17148e-36
3648 1 0.000635 0.00342656 -0.010795 -0.020088 1.79349e-07 -9.70581e-08 -5.27077e-06 2.83764e-10 1.0343e-35
3821 1 0.000635 0.00562626 -0.010795 -0.020088 1.53842e-05 1.34154e-05 2.73852e-06 2.40037e-10 3.70442e-12
3992 1 0.000635 0.0078211 -0.0107856 -0.0199331 -9.58882e-11 1.10288e-10 1.69047e-10 1.39012e-09 5.98963e-11
4077 1 0.000635 0.00890286 -0.0113846 -0.0196455 -6.24501e-10 6.5967e-10 2.29591e-09 2.75247e-09 1.9435e-11
2615 1 0.000635 -0.00975936 -0.0095122 -0.0198949 1.03294e-10 5.10558e-10 2.61598e-09 2.92227e-09 2.50818e-10
2700 1 0.000635 -0.00866211 -0.010149 -0.0199121 -2.89207e-10 -8.969e-11 -5.04763e-10 2.84284e-09 1.3116e-10
2786 1 0.000635 -0.00757197 -0.009525 -0.020088 7.71725e-05 3.82079e-06 -1.35959e-05 1.80726e-09 4.51575e-11
2871 1 0.000635 -0.00647211 -0.01016 -0.020088 5.4742e-05 1.84691e-05 -1.47583e-05 2.23149e-09 2.031e-11
2957 1 0.000635 -0.00537226 -0.009525 -0.020088 -3.39713e-08 -3.82931e-08 -2.98187e-06 8.44883e-11 3.74932e-35
3043 1 0.000635 -0.00427241 -0.01016 -0.020088 -1.95552e-08 -4.42125e-08 -2.99211e-06 8.5074e-11 2.71503e-35
3130 1 0.000635 -0.00317256 -0.009525 -0.020088 2.0671e-17 0 2.16e-11 1.05285e-24 6.46435e-36
3216 1 0.000635 -0.0020727 -0.01016 -0.020088 -6.77626e-21 0 2.16e-11 0 5.17148e-36
3303 1 0.000635 -0.000972852 -0.009525 -0.020088 0 0 2.16e-11 0 5.17148e-36
3389 1 0.000635 0.000127 -0.01016 -0.020088 0 0 2.16e-11 0 5.17148e-36
3476 1 0.000635 0.00122685 -0.009525 -0.020088 0 0 2.16e-11 0 5.17148e-36
3562 1 0.000635 0.0023267 -0.01016 -0.020088 0 0 2.16e-11 0 5.17148e-36
3649 1 0.000635 0.00342656 -0.009525 -0.020088 4.13115e-17 0 2.16e-11 0 1.0343e-35
3735 1 0.000635 0.00452641 -0.01016 -0.020088 1.08596e-07 -6.55625e-08 -4.16247e-06 1.72667e-10 3.10289e-35
3822 1 0.000635 0.00562626 -0.009525 -0.020088 7.25405e-08 -4.34454e-08 -3.37585e-06 1.12594e-10 3.74932e-35
3907 1 0.000635 0.00672611 -0.01016 -0.020088 2.82878e-05 -3.9407e-06 5.11092e-06 1.85613e-10 5.55919e-12
3993 1 0.000635 0.00782597 -0.009525 -0.020088 2.55237e-05 -2.11312e-05 3.31284e-06 5.04697e-10 4.07973e-12
4078 1 0.000635 0.00892248 -0.0101504 -0.0199439 2.9891e-10 -3.43151e-10 -2.28239e-09 2.72568e-09 1.71822e-10
4164 1 0.000635 0.0100008 -0.00949207 -0.0197899 3.17399e-10 -2.35211e-10 -1.36638e-09 2.45259e-09 2.84874e-10
2446 1 0.000635 -0.0119558 -0.00824551 -0.0198257 -8.22518e-11 -7.87978e-10 -3.7307e-10 4.46134e-09 4.01304e-11
2530 1 0.000635 -0.0108564 -0.00887744 -0.0198666 9.5682e-10 1.10574e-09 5.52854e-09 3.37041e-09 1.14805e-10
2616 1 0.000635 -0.00977167 -0.008255 -0.020088 -2.14019e-05 -9.97374e-05 1.71741e-05 9.63846e-10 5.74113e-11
2701 1 0.000635 -0.00867182 -0.00889 -0.020088 0.000105712 -7.69179e-06 -1.41461e-05 1.38129e-09 9.12418e-11
2787 1 0.000635 -0.00757197 -0.008255 -0.020088 -5.16149e-08 -3.77215e-08 -3.19536e-06 9.757e-11 4.0079e-35
2872 1 0.000635 -0.00647211 -0.00889 -0.020088 -4.40569e-08 -3.58919e-08 -3.03118e-06 8.73857e-11 3.74932e-35
2958 1 0.000635 -0.00537226 -0.008255 -0.020088 1.44607e-16 -7.15799e-17 2.16e-11 5.26426e-25 4.0079e-35
3044 1 0.000635 -0.00427241 -0.00889 -0.020088 -1.03289e-16 -4.76841e-17 2.16e-11 1.05285e-24 2.71503e-35
3131 1 0.000635 -0.00317256 -0.008255 -0.020088 3.09912e-17 -7.75431e-17 2.16e-11 5.26426e-25 1.87466e-35
3217 1 0.000635 -0.0020727 -0.00889 -0.020088 -3.38813e-21 -4.76866e-17 2.16e-11 0 5.17148e-36
3304 1 0.000635 -0.000972852 -0.008255 -0.020088 0 -7.15833e-17 2.16e-11 0 1.0343e-35
3390 1 0.000635 0.000127 -0.00889 -0.020088 0 -4.76866e-17 2.16e-11 0 5.17148e-36
3477 1 0.000635 0.00122685 -0.008255 -0.020088 0 -7.15833e-17 2.16e-11 0 1.0343e-35
3563 1 0.000635 0.0023267 -0.00889 -0.020088 0 -4.76858e-17 2.16e-11 0 5.17148e-36
3650 1 0.000635 0.00342656 -0.008255 -0.020088 4.13098e-17 -7.15825e-17 2.16e-11 0 1.0343e-35
3736 1 0.000635 0.00452641 -0.00889 -0.020088 4.13115e-17 -4.76841e-17 2.16e-11 0 3.10289e-35
3823 1 0.000635 0.00562626 -0.008255 -0.020088 -1.446e-16 -7.15791e-17 2.16e-11 0 4.0079e-35
3908 1 0.000635 0.00672611 -0.00889 -0.020088 3.81716e-08 -5.05998e-08 -2.93338e-06 8.33065e-11 1.68073e-35
3994 1 0.000635 0.00782597 -0.008255 -0.020088 -2.81405e-08 -1.22999e-07 -4.00019e-06 1.68804e-10 1.0343e-35
4079 1 0.000635 0.00892582 -0.00889 -0.020088 -0.000109399 0.00013596 -4.13375e-05 1.32249e-09 1.0308e-10
4165 1 0.000635 0.0100257 -0.008255 -0.020088 0.000437278 0.000100178 0.000126416 1.8945e-09 1.2411e-09
2362 1 0.000635 -0.0130523 -0.00761025 -0.0197458 2.45713e-10 -2.56783e-10 7.50624e-10 3.70204e-09 1.21834e-10
2447 1 0.000635 -0.0119675 -0.00698398 -0.0199688 1.7506e-10 -2.37758e-10 1.25255e-09 5.1734e-10 1.24978e-10
2531 1 0.000635 -0.0108709 -0.00761974 -0.0200414 3.21258e-11 7.98913e-11 9.9725e-10 6.47882e-10 1.93513e-11
2617 1 0.000635 -0.00977167 -0.006985 -0.020088 -7.12537e-06 -4.0597e-06 -2.50351e-06 1.04222e-10 2.96337e-13
2702 1 0.000635 -0.00867182 -0.00762 -0.020088 -7.10116e-08 -2.51944e-08 -3.50177e-06 1.18332e-10 2.9736e-35
2788 1 0.000635 -0.00757197 -0.006985 -0.020088 1.44605e-16 -2.38958e-17 2.16e-11 0 4.0079e-35
2873 1 0.000635 -0.00647211 -0.00762 -0.020088 -1.44609e-16 2.38967e-17 2.16e-11 0 4.0079e-35
2959 1 0.000635 -0.00537226 -0.006985 -0.020088 1.44605e-16 -2.38958e-17 2.16e-11 0 4.0079e-35
3045 1 0.000635 -0.00427241 -0.00762 -0.020088 -1.13623e-16 2.98573e-17 2.16e-11 0 2.90896e-35
3132 1 0.000635 -0.00317256 -0.006985 -0.020088 3.09912e-17 -2.98573e-17 2.16e-11 0 1.87466e-35
3218 1 0.000635 -0.0020727 -0.00762 -0.020088 -1.69407e-21 2.38958e-17 2.16e-11 0 1.0343e-35
3305 1 0.000635 -0.000972852 -0.006985 -0.020088 0 -2.38967e-17 2.16e-11 0 1.0343e-35
3391 1 0.000635 0.000127 -0.00762 -0.020088 0 2.38967e-17 2.16e-11 0 1.0343e-35
3478 1 0.000635 0.00122685 -0.006985 -0.020088 0 -2.38967e-17 2.16e-11 0 1.0343e-35
3564 1 0.000635 0.0023267 -0.00762 -0.020088 0 2.38967e-17 2.16e-11 0 1.0343e-35
3651 1 0.000635 0.00342656 -0.006985 -0.020088 4.13081e-17 -2.38967e-17 2.16e-11 0 1.0343e-35
3737 1 0.000635 0.00452641 -0.00762 -0.020088 4.13217e-17 2.38958e-17 2.16e-11 0 2.06859e-35
3824 1 0.000635 0.00562626 -0.006985 -0.020088 -1.44599e-16 -2.3895e-17 2.16e-11 0 4.0079e-35
3909 1 0.000635 0.00672611 -0.00762 -0.020088 6.19757e-17 2.38958e-17 2.16e-11 0 2.9736e-35
3995 1 0.000635 0.00782597 -0.006985 -0.020088 -6.77626e-21 -2.38967e-17 2.16e-11 0 1.0343e-35
4080 1 0.000635 0.00892582 -0.00762 -0.020088 -1.04344e-07 -2.31786e-07 -7.28462e-06 7.73368e-10 1.0343e-35
4166 1 0.000635 0.0100257 -0.006985 -0.020088 -0.000133295 7.60432e-05 -2.98144e-05 1.43395e-09 1.10756e-10
4251 1 0.000635 0.0111143 -0.00760803 -0.0199078 -1.53044e-10 2.01992e-10 8.31501e-10 2.33551e-09 1.97339e-09
4336 1 0.000635 0.0121342 -0.0069152 -0.0195753 -2.9922e-11 1.0268e-10 1.82976e-10 2.84941e-09 1.75014e-09
2363 1 0.000635 -0.0130407 -0.00634127 -0.0197543 -9.82529e-11 -1.69341e-10 -6.17418e-10 6.16079e-10 1.36594e-10
2448 1 0.000635 -0.0119704 -0.00571577 -0.0200393 -3.84575e-10 -3.34069e-10 -3.65825e-09 4.0247e-10 1.44951e-10
2532 1 0.000635 -0.0108715 -0.00635 -0.020088 -6.87046e-05 -8.88057e-05 9.03243e-06 1.66412e-10 4.77469e-11
2618 1 0.000635 -0.00977167 -0.005715 -0.020088 -4.65068e-09 8.05522e-09 -1.05006e-06 2.08855e-11 6.85221e-35
2703 1 0.000635 -0.00867182 -0.00635 -0.020088 -4.74399e-10 8.21683e-10 -4.1134e-07 3.19893e-12 2.9736e-35
2789 1 0.000635 -0.00757197 -0.005715 -0.020088 1.44602e-16 4.76832e-17 2.16e-11 0 3.74932e-35
2874 1 0.000635 -0.00647211 -0.00635 -0.020088 -1.44609e-16 7.15816e-17 2.16e-11 0 4.0079e-35
2960 1 0.000635 -0.00537226 -0.005715 -0.020088 1.44604e-16 4.76841e-17 2.16e-11 5.26426e-25 3.74932e-35
3046 1 0.000635 -0.00427241 -0.00635 -0.020088 -1.13621e-16 7.75431e-17 2.16e-11 0 2.90896e-35
3133 1 0.000635 -0.00317256 -0.005715 -0.020088 2.0671e-17 4.76858e-17 2.16e-11 5.26426e-25 6.46435e-36
3219 1 0.000635 -0.0020727 -0.00635 -0.020088 -5.0822e-21 7.15842e-17 2.16e-11 0 1.0343e-35
3306 1 0.000635 -0.000972852 -0.005715 -0.020088 0 4.76866e-17 2.16e-11 0 5.17148e-36
3392 1 0.000635 0.000127 -0.00635 -0.020088 0 7.1585e-17 2.16e-11 0 1.0343e-35
3479 1 0.000635 0.00122685 -0.005715 -0.020088 0 4.76866e-17 2.16e-11 0 5.17148e-36
3565 1 0.000635 0.0023267 -0.00635 -0.020088 0 7.15842e-17 2.16e-11 0 1.0343e-35
3652 1 0.000635 0.00342656 -0.005715 -0.020088 4.13098e-17 4.76858e-17 2.16e-11 0 1.0343e-35
3738 1 0.000635 0.00452641 -0.00635 -0.020088 4.13183e-17 7.15816e-17 2.16e-11 0 2.06859e-35
3825 1 0.000635 0.00562626 -0.005715 -0.020088 -1.44597e-16 4.76841e-17 2.16e-11 0 3.74932e-35
3910 1 0.000635 0.00672611 -0.00635 -0.020088 6.19774e-17 7.15825e-17 2.16e-11 0 2.9736e-35
3996 1 0.000635 0.00782597 -0.005715 -0.020088 -6.77626e-21 4.76849e-17 2.16e-11 0 5.17148e-36
4081 1 0.000635 0.00892582 -0.00635 -0.020088 -2.09531e-08 -3.62918e-08 -1.59241e-06 4.81996e-11 1.0343e-35
4167 1 0.000635 0.0100257 -0.005715 -0.020088 -6.58838e-08 -1.14114e-07 -4.54033e-06 4.074e-10 6.85221e-35
4252 1 0.000635 0.0111255 -0.00635 -0.020088 -0.000454293 -5.74217e-05 -0.000122297 2.10215e-09 6.98664e-10
4337 1 0.000635 0.0122191 -0.00571846 -0.0200112 6.38325e-11 2.52302e-12 -1.44758e-10 3.09105e-09 1.70578e-09
2364 1 0.000635 -0.013021 -0.0050731 -0.019737 1.42086e-09 -3.51745e-10 2.69927e-09 4.98385e-10 3.22809e-10
2533 1 0.000635 -0.0108715 -0.00508 -0.020088 -2.26493e-05 -1.32561e-05 -3.99583e-06 3.08918e-10 3.05232e-12
2704 1 0.000635 -0.00867182 -0.00508 -0.020088 -6.19774e-17 -2.3845e-17 2.16e-11 0 1.42216e-35
2875 1 0.000635 -0.00647211 -0.00508 -0.020088 -1.44605e-16 -2.38442e-17 2.16e-11 0 3.49075e-35
3047 1 0.000635 -0.00427241 -0.00508 -0.020088 -1.03287e-16 -2.38433e-17 2.16e-11 1.57928e-24 2.45645e-35
3220 1 0.000635 -0.0020727 -0.00508 -0.020088 -3.38813e-21 -2.38442e-17 2.16e-11 0 2.58574e-36
3393 1 0.000635 0.000127 -0.00508 -0.020088 0 -2.38442e-17 2.16e-11 0 2.58574e-36
3566 1 0.000635 0.0023267 -0.00508 -0.020088 -3.38813e-21 -2.38459e-17 2.16e-11 0 2.58574e-36
3739 1 0.000635 0.00452641 -0.00508 -0.020088 4.13081e-17 -2.38433e-17 2.16e-11 5.26426e-25 2.84431e-35
3911 1 0.000635 0.00672611 -0.00508 -0.020088 6.19859e-17 -2.38442e-17 2.16e-11 0 1.42216e-35
4082 1 0.000635 0.00892582 -0.00508 -0.020088 -8.47033e-21 -2.3845e-17 2.16e-11 0 2.58574e-36
4253 1 0.000635 0.0111255 -0.00508 -0.020088 -6.45765e-05 3.69936e-05 -1.51754e-05 1.47172e-09 2.57415e-11
4422 1 0.000635 0.0132839 -0.00507683 -0.0197732 3.38772e-10 -2.07251e-11 -1.03608e-09 3.95138e-09 4.73308e-10
2365 1 0.000635 -0.0130031 -0.00380671 -0.0197079 4.73126e-10 -1.40759e-10 9.3559e-10 5.68767e-10 2.52299e-10
2449 1 0.000635 -0.0119714 -0.004445 -0.020088 -0.000178343 -0.000125024 7.63724e-05 4.81792e-10 1.58508e-10
2534 1 0.000635 -0.0108715 -0.00381 -0.020088 -2.38129e-07 -1.21045e-07 -6.42637e-06 4.01697e-10 4.65433e-35
2619 1 0.000635 -0.00977167 -0.004445 -0.020088 -5.0824e-09 8.80297e-09 -4.29268e-07 3.48587e-12 6.01185e-35
2705 1 0.000635 -0.00867182 -0.00381 -0.020088 -8.2623e-17 0 2.16e-11 1.05285e-24 2.06859e-35
2790 1 0.000635 -0.00757197 -0.004445 -0.020088 1.44602e-16 -5.96282e-17 2.16e-11 5.26426e-25 3.74932e-35
2876 1 0.000635 -0.00647211 -0.00381 -0.020088 -1.44605e-16 0 2.16e-11 0 3.23218e-35
2961 1 0.000635 -0.00537226 -0.004445 -0.020088 1.44604e-16 -5.9629e-17 2.16e-11 5.26426e-25 3.74932e-35
3048 1 0.000635 -0.00427241 -0.00381 -0.020088 -1.03291e-16 0 2.16e-11 0 1.68073e-35
3134 1 0.000635 -0.00317256 -0.004445 -0.020088 3.09963e-17 -5.36693e-17 2.16e-11 1.57928e-24 8.40366e-36
3221 1 0.000635 -0.0020727 -0.00381 -0.020088 -6.77626e-21 0 2.16e-11 2.10571e-24 0
3307 1 0.000635 -0.000972852 -0.004445 -0.020088 0 -4.77053e-17 2.16e-11 1.05285e-24 5.17148e-36
3394 1 0.000635 0.000127 -0.00381 -0.020088 0 0 2.16e-11 1.05285e-24 0
3480 1 0.000635 0.00122685 -0.004445 -0.020088 0 -4.77053e-17 2.16e-11 1.05285e-24 5.17148e-36
3567 1 0.000635 0.0023267 -0.00381 -0.020088 0 0 2.16e-11 2.10571e-24 0
3653 1 0.000635 0.00342656 -0.004445 -0.020088 3.09811e-17 -5.36701e-17 2.16e-11 1.05285e-24 8.40366e-36
3740 1 0.000635 0.00452641 -0.00381 -0.020088 4.13217e-17 7.70372e-34 2.16e-11 0 1.29287e-35
3826 1 0.000635 0.00562626 -0.004445 -0.020088 -1.44597e-16 -5.9629e-17 2.16e-11 5.26426e-25 3.74932e-35
3912 1 0.000635 0.00672611 -0.00381 -0.020088 8.26298e-17 0 2.16e-11 1.05285e-24 2.06859e-35
3997 1 0.000635 0.00782597 -0.004445 -0.020088 -3.38813e-21 -4.77061e-17 2.16e-11 1.05285e-24 5.17148e-36
4083 1 0.000635 0.00892582 -0.00381 -0.020088 -6.77626e-21 0 2.16e-11 1.05285e-24 0
4168 1 0.000635 0.0100257 -0.004445 -0.020088 2.70911e-08 4.69232e-08 -6.77774e-07 8.74524e-12 6.01185e-35
4254 1 0.000635 0.0111255 -0.00381 -0.020088 1.94066e-07 -6.2949e-08 -5.69346e-06 3.13167e-10 4.65433e-35
4338 1 0.000635 0.0122254 -0.004445 -0.020088 0.000207005 -0.00032127 7.93967e-05 3.25606e-09 6.02503e-10
4423 1 0.000635 0.01328 -0.00380804 -0.0197707 1.21709e-09 7.55831e-11 -3.33668e-09 2.48266e-09 1.661e-10
2366 1 0.000635 -0.0130042 -0.00253836 -0.0197093 6.94393e-11 -1.06515e-10 -5.91799e-11 5.37505e-10 7.18515e-11
2450 1 0.000635 -0.0119714 -0.003175 -0.020088 4.2398e-05 7.91147e-05 -5.77701e-06 5.52603e-10 6.27603e-11
2535 1 0.000635 -0.0108715 -0.00254 -0.020088 -2.88584e-07 -2.26985e-08 -6.70349e-06 4.37866e-10 6.33506e-35
2620 1 0.000635 -0.00977167 -0.003175 -0.020088 -1.3427e-16 4.1748e-17 2.16e-11 5.26426e-25 5.81792e-35
2706 1 0.000635 -0.00867182 -0.00254 -0.020088 -7.2301e-17 -5.97417e-18 2.16e-11 0 1.61609e-35
2791 1 0.000635 -0.00757197 -0.003175 -0.020088 1.44602e-16 4.77053e-17 2.16e-11 5.26426e-25 3.55539e-35
2877 1 0.000635 -0.00647211 -0.00254 -0.020088 -1.44605e-16 -1.19365e-17 2.16e-11 0 3.23218e-35
2962 1 0.000635 -0.00537226 -0.003175 -0.020088 1.44604e-16 4.7707e-17 2.16e-11 0 3.55539e-35
3049 1 0.000635 -0.00427241 -0.00254 -0.020088 -1.03284e-16 -1.19373e-17 2.16e-11 5.26426e-25 1.93931e-35
3135 1 0.000635 -0.00317256 -0.003175 -0.020088 3.09963e-17 4.17472e-17 2.16e-11 1.05285e-24 6.46435e-36
3222 1 0.000635 -0.0020727 -0.00254 -0.020088 0 -1.43996e-20 2.16e-11 0 0
3308 1 0.000635 -0.000972852 -0.003175 -0.020088 0 3.57823e-17 2.16e-11 1.05285e-24 3.23218e-36
3395 1 0.000635 0.000127 -0.00254 -0.020088 0 -1.35525e-20 2.16e-11 0 0
3481 1 0.000635 0.00122685 -0.003175 -0.020088 0 3.57823e-17 2.16e-11 1.05285e-24 3.23218e-36
3568 1 0.000635 0.0023267 -0.00254 -0.020088 -6.77626e-21 -1.35525e-20 2.16e-11 0 0
3654 1 0.000635 0.00342656 -0.003175 -0.020088 3.09777e-17 4.17463e-17 2.16e-11 1.05285e-24 6.46435e-36
3741 1 0.000635 0.00452641 -0.00254 -0.020088 4.13115e-17 -1.19382e-17 2.16e-11 5.26426e-25 1.93931e-35
3827 1 0.000635 0.00562626 -0.003175 -0.020088 -1.44595e-16 4.77053e-17 2.16e-11 5.26426e-25 3.55539e-35
3913 1 0.000635 0.00672611 -0.00254 -0.020088 7.23095e-17 -5.97502e-18 2.16e-11 0 1.61609e-35
3998 1 0.000635 0.00782597 -0.003175 -0.020088 0 3.57823e-17 2.16e-11 1.05285e-24 3.23218e-36
4084 1 0.000635 0.00892582 -0.00254 -0.020088 -8.47033e-21 -1.27055e-20 2.16e-11 0 0
4169 1 0.000635 0.0100257 -0.003175 -0.020088 1.3427e-16 4.1748e-17 2.16e-11 5.26426e-25 5.81792e-35
4255 1 0.000635 0.0111255 -0.00254 -0.020088 2.03579e-07 -3.29456e-08 -5.69092e-06 3.12849e-10 6.33506e-35
4339 1 0.000635 0.0122254 -0.003175 -0.020088 4.38326e-05 1.17603e-05 2.20217e-05 3.89056e-10 7.86622e-12
4424 1 0.000635 0.0132744 -0.00253916 -0.0197565 1.3086e-09 1.88453e-10 -3.55337e-09 4.2284e-10 2.772e-11
2367 1 0.000635 -0.0130039 -0.00126936 -0.0197084 -1.04593e-09 -5.53854e-11 -2.6541e-09 5.19183e-10 2.44965e-11
2451 1 0.000635 -0.0119714 -0.001905 -0.020088 7.65805e-06 3.25766e-05 8.08056e-06 5.1434e-10 9.77072e-12
2536 1 0.000635 -0.0108715 -0.00127 -0.020088 -2.89918e-07 -1.13967e-08 -6.68656e-06 4.35645e-10 6.33506e-35
2621 1 0.000635 -0.00977167 -0.001905 -0.020088 -1.44592e-16 -1.19229e-17 2.16e-11 5.26426e-25 6.39971e-35
2707 1 0.000635 -0.00867182 -0.00127 -0.020088 -7.2301e-17 5.96909e-18 2.16e-11 5.26426e-25 1.61609e-35
2792 1 0.000635 -0.00757197 -0.001905 -0.020088 1.44605e-16 -1.19229e-17 2.16e-11 0 3.29682e-35
2878 1 0.000635 -0.00647211 -0.00127 -0.020088 -1.44605e-16 1.19331e-17 2.16e-11 0 3.23218e-35
2963 1 0.000635 -0.00537226 -0.001905 -0.020088 1.44602e-16 -1.19246e-17 2.16e-11 0 3.29682e-35
3050 1 0.000635 -0.00427241 -0.00127 -0.020088 -1.13613e-16 5.96993e-18 2.16e-11 0 2.13324e-35
3136 1 0.000635 -0.00317256 -0.001905 -0.020088 4.13081e-17 -1.19229e-17 2.16e-11 0 5.81792e-36
3223 1 0.000635 -0.0020727 -0.00127 -0.020088 0 7.6233e-21 2.16e-11 0 0
3309 1 0.000635 -0.000972852 -0.001905 -0.020088 0 -1.19229e-17 2.16e-11 0 6.46435e-37
3396 1 0.000635 0.000127 -0.00127 -0.020088 0 6.77626e-21 2.16e-11 0 0
3482 1 0.000635 0.00122685 -0.001905 -0.020088 0 -1.19229e-17 2.16e-11 0 6.46435e-37
3569 1 0.000635 0.0023267 -0.00127 -0.020088 -6.77626e-21 6.77626e-21 2.16e-11 0 0
3655 1 0.000635 0.00342656 -0.001905 -0.020088 2.06608e-17 -1.19229e-17 2.16e-11 0 1.93931e-36
3742 1 0.000635 0.00452641 -0.00127 -0.020088 4.13149e-17 1.19331e-17 2.16e-11 5.26426e-25 1.93931e-35
3828 1 0.000635 0.00562626 -0.001905 -0.020088 -1.44599e-16 -1.19229e-17 2.16e-11 0 3.29682e-35
3914 1 0.000635 0.00672611 -0.00127 -0.020088 7.23078e-17 5.96909e-18 2.16e-11 5.26426e-25 1.61609e-35
3999 1 0.000635 0.00782597 -0.001905 -0.020088 -6.77626e-21 -1.19229e-17 2.16e-11 5.26426e-25 6.46435e-37
4085 1 0.000635 0.00892582 -0.00127 -0.020088 -6.77626e-21 6.77626e-21 2.16e-11 0 0
4170 1 0.000635 0.0100257 -0.001905 -0.020088 1.44599e-16 -1.19229e-17 2.16e-11 0 6.39971e-35
4256 1 0.000635 0.0111255 -0.00127 -0.020088 2.17816e-07 -2.51117e-10 -5.80222e-06 3.25506e-10 6.33506e-35
4340 1 0.000635 0.0122254 -0.001905 -0.020088 4.22108e-06 1.08553e-05 1.07428e-05 3.84751e-10 1.16566e-12
4425 1 0.000635 0.0132753 -0.00126969 -0.0197599 8.35985e-10 1.68821e-10 -2.15846e-09 4.15338e-10 6.52875e-12
2368 1 0.000635 -0.013004 8.28823e-10 -0.0197087 -6.81067e-11 -2.63432e-11 -3.50673e-10 5.16286e-10 1.33698e-11
2452 1 0.000635 -0.0119714 -0.000635 -0.020088 -1.79006e-06 8.59249e-06 1.17595e-05 5.03401e-10 7.04268e-13
2622 1 0.000635 -0.00977167 -0.000635 -0.020088 -1.44599e-16 -8.47033e-21 2.16e-11 0 6.33506e-35
2793 1 0.000635 -0.00757197 -0.000635 -0.020088 1.44604e-16 -1.19339e-17 2.16e-11 5.26426e-25 3.23218e-35
2964 1 0.000635 -0.00537226 -0.000635 -0.020088 1.44604e-16 -1.19365e-17 2.16e-11 0 3.23218e-35
3137 1 0.000635 -0.00317256 -0.000635 -0.020088 4.13183e-17 -8.47033e-21 2.16e-11 0 5.17148e-36
3310 1 0.000635 -0.000972852 -0.000635 -0.020088 0 -8.47033e-21 2.16e-11 0 0
3483 1 0.000635 0.00122685 -0.000635 -0.020088 0 -8.47033e-21 2.16e-11 0 0
3656 1 0.000635 0.00342656 -0.000635 -0.020088 3.09811e-17 -5.97078e-18 2.16e-11 5.26426e-25 3.23218e-36
3829 1 0.000635 0.00562626 -0.000635 -0.020088 -1.44597e-16 -1.19339e-17 2.16e-11 5.26426e-25 3.23218e-35
4000 1 0.000635 0.00782597 -0.000635 -0.020088 0 -8.47033e-21 2.16e-11 0 0
4171 1 0.000635 0.0100257 -0.000635 -0.020088 1.44599e-16 -8.47033e-21 2.16e-11 0 6.33506e-35
4341 1 0.000635 0.0122254 -0.000635 -0.020088 1.87876e-07 3.626e-06 8.97986e-06 3.9788e-10 1.23511e-13
2453 1 0.000635 -0.0119714 0.000635 -0.020088 -1.787e-06 -8.5493e-06 1.17565e-05 5.03332e-10 6.9744e-13
2537 1 0.000635 -0.0108715 0 -0.020088 -2.91973e-07 1.08897e-10 -6.69525e-06 4.36842e-10 6.33506e-35
2623 1 0.000635 -0.00977167 0.000635 -0.020088 -1.44599e-16 -3.38813e-21 2.16e-11 0 6.33506e-35
2708 1 0.000635 -0.00867182 0 -0.020088 -8.26247e-17 5.92923e-21 2.16e-11 0 2.06859e-35
2794 1 0.000635 -0.00757197 0.000635 -0.020088 1.44602e-16 -3.38813e-21 2.16e-11 0 3.23218e-35
2879 1 0.000635 -0.00647211 0 -0.020088 -1.44605e-16 5.0822e-21 2.16e-11 0 3.23218e-35
2965 1 0.000635 -0.00537226 0.000635 -0.020088 1.44602e-16 -3.38813e-21 2.16e-11 0 3.23218e-35
3051 1 0.000635 -0.00427241 0 -0.020088 -1.03282e-16 5.92923e-21 2.16e-11 0 1.68073e-35
3138 1 0.000635 -0.00317256 0.000635 -0.020088 4.13149e-17 -3.38813e-21 2.16e-11 0 5.17148e-36
3224 1 0.000635 -0.0020727 0 -0.020088 0 6.77626e-21 2.16e-11 0 0
3311 1 0.000635 -0.000972852 0.000635 -0.020088 0 -3.38813e-21 2.16e-11 0 0
3397 1 0.000635 0.000127 0 -0.020088 0 6.77626e-21 2.16e-11 0 0
3484 1 0.000635 0.00122685 0.000635 -0.020088 0 -3.38813e-21 2.16e-11 0 0
3570 1 0.000635 0.0023267 0 -0.020088 -3.38813e-21 5.0822e-21 2.16e-11 5.26426e-25 0
3657 1 0.000635 0.00342656 0.000635 -0.020088 2.06574e-17 -3.38813e-21 2.16e-11 0 1.29287e-36
3743 1 0.000635 0.00452641 0 -0.020088 4.13132e-17 5.92923e-21 2.16e-11 0 1.29287e-35
3830 1 0.000635 0.00562626 0.000635 -0.020088 -1.44595e-16 -3.38813e-21 2.16e-11 0 3.23218e-35
3915 1 0.000635 0.00672611 0 -0.020088 8.26315e-17 5.92923e-21 2.16e-11 0 2.06859e-35
4001 1 0.000635 0.00782597 0.000635 -0.020088 0 -3.38813e-21 2.16e-11 0 0
4086 1 0.000635 0.00892582 0 -0.020088 -6.77626e-21 6.77626e-21 2.16e-11 0 0
4172 1 0.000635 0.0100257 0.000635 -0.020088 1.44599e-16 -3.38813e-21 2.16e-11 0 6.33506e-35
4257 1 0.000635 0.0111255 0 -0.020088 2.1799e-07 -1.21765e-10 -5.78848e-06 3.23928e-10 6.33506e-35
4342 1 0.000635 0.0122254 0.000635 -0.020088 1.94547e-07 -3.75837e-06 8.98438e-06 3.97983e-10 1.32473e-13
4426 1 0.000635 0.0132758 -2.48907e-09 -0.0197617 1.42458e-10 2.275e-10 -4.41248e-10 4.1919e-10 3.0282e-12
2369 1 0.000635 -0.0130039 0.00126936 -0.0197085 7.6348e-10 -1.51979e-11 1.6683e-09 5.19067e-10 2.44443e-11
2454 1 0.000635 -0.0119714 0.001905 -0.020088 7.67954e-06 -3.25249e-05 8.06884e-06 5.1415e-10 9.74102e-12
2538 1 0.000635 -0.0108715 0.00127 -0.020088 -2.89786e-07 1.1604e-08 -6.68505e-06 4.35442e-10 6.33506e-35
2624 1 0.000635 -0.00977167 0.001905 -0.020088 -1.44595e-16 1.19221e-17 2.16e-11 0 6.39971e-35
2709 1 0.000635 -0.00867182 0.00127 -0.020088 -8.26264e-17 0 2.16e-11 0 2.06859e-35
2795 1 0.000635 -0.00757197 0.001905 -0.020088 1.44604e-16 1.19221e-17 2.16e-11 0 3.29682e-35
2880 1 0.000635 -0.00647211 0.00127 -0.020088 -1.44605e-16 0 2.16e-11 0 3.23218e-35
2966 1 0.000635 -0.00537226 0.001905 -0.020088 1.44604e-16 1.19238e-17 2.16e-11 0 3.29682e-35
3052 1 0.000635 -0.00427241 0.00127 -0.020088 -1.0328e-16 0 2.16e-11 0 1.68073e-35
3139 1 0.000635 -0.00317256 0.001905 -0.020088 4.13115e-17 1.19229e-17 2.16e-11 0 5.81792e-36
3225 1 0.000635 -0.0020727 0.00127 -0.020088 0 0 2.16e-11 0 0
3312 1 0.000635 -0.000972852 0.001905 -0.020088 0 1.19212e-17 2.16e-11 0 6.46435e-37
3398 1 0.000635 0.000127 0.00127 -0.020088 0 0 2.16e-11 0 0
3485 1 0.000635 0.00122685 0.001905 -0.020088 0 1.19212e-17 2.16e-11 0 6.46435e-37
3571 1 0.000635 0.0023267 0.00127 -0.020088 -6.77626e-21 0 2.16e-11 0 0
3658 1 0.000635 0.00342656 0.001905 -0.020088 2.06591e-17 1.19221e-17 2.16e-11 0 1.93931e-36
3744 1 0.000635 0.00452641 0.00127 -0.020088 4.13115e-17 0 2.16e-11 0 1.29287e-35
3831 1 0.000635 0.00562626 0.001905 -0.020088 -1.44597e-16 1.19221e-17 2.16e-11 0 3.29682e-35
3916 1 0.000635 0.00672611 0.00127 -0.020088 8.26331e-17 0 2.16e-11 0 2.06859e-35
4002 1 0.000635 0.00782597 0.001905 -0.020088 -3.38813e-21 1.19221e-17 2.16e-11 0 6.46435e-37
4087 1 0.000635 0.00892582 0.00127 -0.020088 -6.77626e-21 0 2.16e-11 0 0
4173 1 0.000635 0.0100257 0.001905 -0.020088 1.44599e-16 1.19212e-17 2.16e-11 0 6.39971e-35
4258 1 0.000635 0.0111255 0.00127 -0.020088 2.18002e-07 -5.34487e-12 -5.80472e-06 3.25795e-10 6.33506e-35
4343 1 0.000635 0.0122254 0.001905 -0.020088 4.25195e-06 -1.1008e-05 1.07625e-05 3.8504e-10 1.19726e-12
4427 1 0.000635 0.0132752 0.00126968 -0.0197598 -2.05713e-10 2.85842e-10 6.09801e-10 4.15499e-10 6.57282e-12
2370 1 0.000635 -0.0130042 0.00253836 -0.0197095 1.24104e-09 2.72584e-12 2.83572e-09 5.37268e-10 7.16197e-11
2455 1 0.000635 -0.0119714 0.003175 -0.020088 4.23248e-05 -7.89519e-05 -5.74334e-06 5.52284e-10 6.25039e-11
2539 1 0.000635 -0.0108715 0.00254 -0.020088 -2.88292e-07 2.29353e-08 -6.70016e-06 4.37418e-10 6.33506e-35
2625 1 0.000635 -0.00977167 0.003175 -0.020088 -1.3427e-16 -4.1748e-17 2.16e-11 5.26426e-25 5.81792e-35
2710 1 0.000635 -0.00867182 0.00254 -0.020088 -7.2301e-17 5.97417e-18 2.16e-11 0 1.61609e-35
2796 1 0.000635 -0.00757197 0.003175 -0.020088 1.44602e-16 -4.77053e-17 2.16e-11 5.26426e-25 3.55539e-35
2881 1 0.000635 -0.00647211 0.00254 -0.020088 -1.44605e-16 1.19365e-17 2.16e-11 0 3.23218e-35
2967 1 0.000635 -0.00537226 0.003175 -0.020088 1.44604e-16 -4.7707e-17 2.16e-11 0 3.55539e-35
3053 1 0.000635 -0.00427241 0.00254 -0.020088 -1.03284e-16 1.19373e-17 2.16e-11 5.26426e-25 1.93931e-35
3140 1 0.000635 -0.00317256 0.003175 -0.020088 3.09963e-17 -4.17472e-17 2.16e-11 1.05285e-24 6.46435e-36
3226 1 0.000635 -0.0020727 0.00254 -0.020088 0 1.43996e-20 2.16e-11 0 0
3313 1 0.000635 -0.000972852 0.003175 -0.020088 0 -3.57823e-17 2.16e-11 1.05285e-24 3.23218e-36
3399 1 0.000635 0.000127 0.00254 -0.020088 0 1.35525e-20 2.16e-11 0 0
3486 1 0.000635 0.00122685 0.003175 -0.020088 0 -3.57823e-17 2.16e-11 1.05285e-24 3.23218e-36
3572 1 0.000635 0.0023267 0.00254 -0.020088 -6.77626e-21 1.35525e-20 2.16e-11 0 0
3659 1 0.000635 0.00342656 0.003175 -0.020088 3.09777e-17 -4.17463e-17 2.16e-11 1.05285e-24 6.46435e-36
3745 1 0.000635 0.00452641 0.00254 -0.020088 4.13115e-17 1.19382e-17 2.16e-11 5.26426e-25 1.93931e-35
3832 1 0.000635 0.00562626 0.003175 -0.020088 -1.44595e-16 -4.77053e-17 2.16e-11 5.26426e-25 3.55539e-35
3917 1 0.000635 0.00672611 0.00254 -0.020088 7.23095e-17 5.97502e-18 2.16e-11 0 1.61609e-35
4003 1 0.000635 0.00782597 0.003175 -0.020088 0 -3.57823e-17 2.16e-11 1.05285e-24 3.23218e-36
4088 1 0.000635 0.00892582 0.00254 -0.020088 -8.47033e-21 1.27055e-20 2.16e-11 0 0
4174 1 0.000635 0.0100257 0.003175 -0.020088 1.3427e-16 -4.1748e-17 2.16e-11 5.26426e-25 5.81792e-35
4259 1 0.000635 0.0111255 0.00254 -0.020088 2.03906e-07 3.2766e-08 -5.69568e-06 3.13379e-10 6.33506e-35
4344 1 0.000635 0.0122254 0.003175 -0.020088 4.40321e-05 -1.18995e-05 2.21198e-05 3.89373e-10 7.9582e-12
4428 1 0.000635 0.0132743 0.00253915 -0.0197562 2.26038e-10 2.77244e-10 -3.24928e-10 4.23085e-10 2.80061e-11
2371 1 0.000635 -0.0130033 0.00380671 -0.0197082 -4.38313e-11 -1.02965e-11 8.46468e-11 5.68378e-10 2.51245e-10