ITEM: TIMESTEP
180000
ITEM: NUMBER OF ATOMS
6793
ITEM: BOX BOUNDS ff ff ff
-8.9999999999999997e-02 8.9999999999999997e-02
-8.9999999999999997e-02 8.9999999999999997e-02
-4.0000000000000001e-02 4.0000000000000001e-02
ITEM: ATOMS id type radius x y z fx fy fz c_bendingE c_stretchingE
3033 1 0.000635 -0.00427413 -0.0228334 -0.00121881 -3.75084e-10 6.688e-10 -5.34472e-11 1.39619e-11 1.88538e-12
3119 1 0.000635 -0.00317615 -0.0234713 -0.00121989 2.54276e-10 1.58911e-09 1.05563e-08 9.39482e-12 2.00161e-12
3206 1 0.000635 -0.00207607 -0.0228409 -0.00129555 4.47024e-10 8.07361e-10 1.27258e-09 6.15378e-12 2.66531e-12
3292 1 0.000635 -0.000976733 -0.0234739 -0.00123864 7.39105e-10 9.18004e-10 5.37341e-10 2.23711e-12 2.11246e-12
3379 1 0.000635 0.000123372 -0.0228404 -0.00127796 1.1538e-09 8.37409e-10 -1.67939e-09 7.40299e-13 1.88124e-12
3465 1 0.000635 0.00122258 -0.0234722 -0.00120463 1.56698e-09 6.3741e-10 -6.68536e-09 1.89449e-13 1.11637e-12
3552 1 0.000635 0.00232257 -0.0228382 -0.00123734 1.98298e-09 7.72531e-10 -6.36839e-09 1.1062e-13 9.46549e-13
3725 1 0.000635 0.00452197 -0.0228371 -0.00120651 2.49279e-09 1.9058e-09 2.02533e-09 1.03005e-13 8.02648e-13
3897 1 0.000635 0.00672155 -0.022837 -0.00118645 3.21367e-09 1.90318e-09 -2.7307e-09 4.4553e-13 1.28668e-12
2947 1 0.000635 -0.00536869 -0.0221917 -0.00116771 3.9809e-11 1.01203e-09 5.52632e-09 1.39204e-11 2.28009e-12
3120 1 0.000635 -0.00317519 -0.0222058 -0.00132772 3.36117e-11 2.88673e-10 -3.3876e-09 1.26642e-11 2.56494e-12
3293 1 0.000635 -0.000975867 -0.0222083 -0.00134709 8.94046e-10 2.23524e-10 -6.3469e-09 2.77873e-12 2.85807e-12
3466 1 0.000635 0.00122334 -0.0222063 -0.00130959 1.58396e-09 1.09757e-09 6.911e-10 2.05092e-13 1.55563e-12
3639 1 0.000635 0.00342259 -0.0222045 -0.00127206 2.21307e-09 1.82433e-09 4.29055e-09 1.33554e-13 9.59527e-13
3812 1 0.000635 0.0056221 -0.0222041 -0.00124949 2.97971e-09 1.43574e-09 -5.37339e-09 1.64018e-13 1.21343e-12
3983 1 0.000635 0.00782167 -0.022204 -0.00122738 3.55465e-09 2.33896e-09 1.09138e-09 1.70905e-12 1.75757e-12
2862 1 0.000635 -0.00645719 -0.0215462 -0.0010617 -1.45757e-09 3.23509e-10 -4.96366e-09 8.6084e-12 2.40369e-12
2948 1 0.000635 -0.00536578 -0.0209246 -0.00124992 -9.59962e-10 2.91294e-10 -3.85025e-09 1.50501e-11 3.52178e-12
3034 1 0.000635 -0.00427276 -0.0215674 -0.00131781 3.3176e-10 1.02625e-09 5.77439e-09 1.76434e-11 2.3575e-12
3121 1 0.000635 -0.00317428 -0.02094 -0.00143287 4.84772e-10 7.04633e-10 2.65205e-09 1.67589e-11 3.25347e-12
3207 1 0.000635 -0.0020752 -0.0215753 -0.00140369 5.38644e-10 4.32403e-10 -1.7445e-09 8.13458e-12 3.61111e-12
3294 1 0.000635 -0.000975052 -0.0209423 -0.00145159 9.04049e-10 7.60635e-10 1.94488e-09 3.35734e-12 3.81309e-12
3380 1 0.000635 0.000124158 -0.0215745 -0.00138245 1.26047e-09 6.78275e-10 -1.47185e-09 8.33739e-13 2.52794e-12
3467 1 0.000635 0.00122404 -0.0209401 -0.00141052 1.36599e-09 1.8958e-09 1.27241e-08 2.27384e-13 2.11437e-12
3553 1 0.000635 0.00232327 -0.0215722 -0.00133987 1.91386e-09 1.45136e-09 3.41962e-09 1.43562e-13 1.36605e-12
3640 1 0.000635 0.00342326 -0.0209384 -0.00137328 2.2165e-09 1.90024e-09 7.19915e-09 1.65844e-13 1.42626e-12
3726 1 0.000635 0.00452266 -0.0215712 -0.00131095 2.60786e-09 1.84631e-09 2.81196e-09 1.21127e-13 1.22294e-12
3813 1 0.000635 0.00562276 -0.0209382 -0.0013537 3.07833e-09 1.09619e-09 -7.90345e-09 2.6838e-13 1.76437e-12
3898 1 0.000635 0.00672223 -0.0215713 -0.00129337 3.3477e-09 1.55587e-09 -5.51301e-09 7.70819e-13 1.80337e-12
3984 1 0.000635 0.0078223 -0.0209381 -0.00133108 3.57014e-09 2.26081e-09 1.78873e-09 2.79077e-12 2.25541e-12
4069 1 0.000635 0.00892158 -0.0215699 -0.0012548 3.87417e-09 2.57057e-09 2.49217e-09 4.42282e-12 1.83774e-12
4155 1 0.000635 0.0100207 -0.0209338 -0.00125572 4.09836e-09 2.81344e-09 3.67224e-09 7.91493e-12 1.42138e-12
2863 1 0.000635 -0.00645167 -0.0202781 -0.00112497 -3.1173e-09 -4.0784e-10 -1.70162e-08 7.90887e-12 3.83156e-12
2949 1 0.000635 -0.00536264 -0.0196574 -0.00132876 -1.1252e-09 7.00251e-11 -6.24517e-09 1.65879e-11 5.96525e-12
3035 1 0.000635 -0.00427137 -0.0203011 -0.00141348 7.34406e-10 1.12277e-09 9.07075e-09 2.11861e-11 2.82147e-12
3122 1 0.000635 -0.00317345 -0.0196739 -0.00153428 3.75723e-10 5.35369e-10 1.23095e-09 2.06018e-11 3.84956e-12
3208 1 0.000635 -0.00207437 -0.0203092 -0.00150774 6.57213e-10 5.12096e-10 -9.89177e-11 1.0282e-11 4.79528e-12
3295 1 0.000635 -0.000974316 -0.0196758 -0.0015507 9.86795e-10 5.05788e-10 3.54611e-11 3.77015e-12 4.87618e-12
3381 1 0.000635 0.000124876 -0.0203081 -0.0014824 1.01765e-09 1.80379e-09 1.47595e-08 8.98615e-13 3.30301e-12
3468 1 0.000635 0.00122468 -0.0196734 -0.00150689 1.52457e-09 1.21933e-09 6.27635e-09 2.4246e-13 2.79174e-12
3554 1 0.000635 0.00232392 -0.0203058 -0.00143839 1.90378e-09 1.26886e-09 3.0141e-09 1.80188e-13 1.92585e-12
3641 1 0.000635 0.00342387 -0.0196719 -0.00147072 2.37281e-09 9.28181e-10 -3.11401e-09 1.89694e-13 2.0534e-12
3727 1 0.000635 0.0045233 -0.020305 -0.00141173 2.74787e-09 8.05193e-10 -8.6502e-09 1.51289e-13 1.79302e-12
3814 1 0.000635 0.00562336 -0.019672 -0.00145422 3.08009e-09 9.75583e-10 -8.06691e-09 4.53848e-13 2.46478e-12
3899 1 0.000635 0.00672285 -0.0203053 -0.00139641 3.39564e-09 1.45007e-09 -5.56152e-09 1.31936e-12 2.46021e-12
3985 1 0.000635 0.00782284 -0.0196718 -0.00142994 3.57514e-09 2.07609e-09 3.2346e-10 4.3875e-12 2.82766e-12
4070 1 0.000635 0.00892202 -0.0203034 -0.00135069 3.45741e-09 3.14373e-09 1.18334e-08 6.57666e-12 2.08923e-12
4156 1 0.000635 0.0100205 -0.0196665 -0.00133689 3.56275e-09 3.22573e-09 1.16272e-08 1.02995e-11 1.44823e-12
4241 1 0.000635 0.0111176 -0.0202951 -0.00121693 3.87732e-09 3.25544e-09 9.5204e-09 9.83853e-12 1.04498e-12
2779 1 0.000635 -0.00752937 -0.0183624 -0.00104741 -1.69306e-09 -2.42721e-12 -8.87481e-09 6.92513e-12 1.77989e-12
2864 1 0.000635 -0.00644669 -0.0190103 -0.00119196 -3.82557e-09 -8.12138e-10 -2.24228e-08 8.87446e-12 5.4273e-12
2950 1 0.000635 -0.00536032 -0.0183907 -0.0014123 -2.08582e-09 -6.2266e-10 -1.4816e-08 1.94729e-11 9.48451e-12
3036 1 0.000635 -0.00427018 -0.0190347 -0.00150724 -4.92313e-10 -1.51624e-11 -4.55451e-09 2.37719e-11 3.27609e-12
3123 1 0.000635 -0.00317277 -0.0184074 -0.00163099 4.37229e-10 6.25624e-10 4.6982e-09 2.24905e-11 4.06268e-12
3209 1 0.000635 -0.00207364 -0.0190427 -0.00160589 6.47251e-10 1.55333e-10 -2.64388e-09 1.172e-11 5.9343e-12
3296 1 0.000635 -0.000973696 -0.0184088 -0.00164303 8.07587e-10 1.04436e-09 1.00043e-08 3.77669e-12 5.76969e-12
3382 1 0.000635 0.000125506 -0.0190412 -0.00157681 1.11433e-09 1.25454e-09 9.92577e-09 8.91013e-13 4.11991e-12
3469 1 0.000635 0.00122525 -0.0184064 -0.00159866 1.40528e-09 1.30403e-09 9.49694e-09 2.35442e-13 3.55094e-12
3555 1 0.000635 0.00232451 -0.019039 -0.00153293 1.92371e-09 8.81309e-10 -1.78284e-10 1.98095e-13 2.65791e-12
3642 1 0.000635 0.00342443 -0.0184051 -0.00156467 2.31713e-09 2.77232e-10 -9.72344e-09 1.92603e-13 2.86369e-12
3728 1 0.000635 0.00452388 -0.0190385 -0.00150898 2.64063e-09 1.18137e-09 -1.64542e-09 1.97073e-13 2.51437e-12
3815 1 0.000635 0.00562391 -0.0184054 -0.00155056 2.89643e-09 1.40124e-09 -9.25948e-11 7.19879e-13 3.2687e-12
3900 1 0.000635 0.00672341 -0.019039 -0.00149505 3.32082e-09 1.48853e-09 -3.54211e-09 2.12991e-12 3.23546e-12
3986 1 0.000635 0.00782329 -0.018405 -0.00152313 3.53087e-09 1.93163e-09 2.85368e-10 6.49523e-12 3.36774e-12
4071 1 0.000635 0.00892229 -0.0190365 -0.00143983 3.78168e-09 2.33153e-09 2.21605e-09 9.28982e-12 2.25589e-12
4157 1 0.000635 0.0100198 -0.0183986 -0.00140868 3.50594e-09 2.9095e-09 9.41628e-09 1.23338e-11 1.53461e-12
4242 1 0.000635 0.0111158 -0.0190267 -0.00127608 3.98758e-09 3.09151e-09 7.55284e-09 1.05379e-11 1.35532e-12
2780 1 0.000635 -0.00753133 -0.0170976 -0.00115854 1.63042e-10 7.95006e-10 2.39646e-09 7.76366e-12 2.22113e-12
2865 1 0.000635 -0.00644498 -0.0177438 -0.00127994 -7.53801e-10 1.75408e-10 -4.7455e-09 1.07807e-11 6.93652e-12
2951 1 0.000635 -0.00536078 -0.0171253 -0.0015141 -1.98593e-10 2.35885e-10 -1.92627e-09 2.2234e-11 1.21757e-11
3037 1 0.000635 -0.00426967 -0.0177685 -0.00160294 -4.21242e-10 -8.49856e-11 -5.09377e-09 2.54238e-11 3.43605e-12
3124 1 0.000635 -0.00317233 -0.0171403 -0.00172171 1.56883e-10 -5.51069e-11 -2.99846e-09 2.25149e-11 3.84263e-12
3210 1 0.000635 -0.00207305 -0.0177754 -0.00169629 5.80093e-10 3.96739e-10 2.01439e-09 1.17706e-11 6.62082e-12
3297 1 0.000635 -0.000973232 -0.0171411 -0.00172733 7.77688e-10 7.8864e-10 8.53369e-09 3.29439e-12 6.1164e-12
3383 1 0.000635 0.000126034 -0.0177739 -0.00166524 9.82132e-10 1.28938e-09 1.30411e-08 7.97599e-13 4.81369e-12
3470 1 0.000635 0.00122575 -0.0171391 -0.00168596 1.29834e-09 7.97761e-10 4.88188e-09 2.28003e-13 4.29011e-12
3556 1 0.000635 0.00232505 -0.0177719 -0.00162383 1.85247e-09 3.87835e-10 -4.79059e-09 1.87293e-13 3.61562e-12
3643 1 0.000635 0.00342495 -0.017138 -0.00165517 2.04574e-09 2.80445e-10 -7.29858e-09 1.80927e-13 3.86605e-12
3729 1 0.000635 0.00452441 -0.0177717 -0.00160234 2.40609e-09 1.88008e-09 1.05592e-08 2.55474e-13 3.34271e-12
3816 1 0.000635 0.0056244 -0.0171384 -0.00164164 2.62559e-09 1.16192e-09 -7.0297e-10 1.03316e-12 4.01064e-12
3901 1 0.000635 0.0067239 -0.0177721 -0.00158829 3.15789e-09 1.25436e-09 -4.26008e-09 3.14273e-12 3.99704e-12
3987 1 0.000635 0.00782367 -0.0171378 -0.00160972 3.24822e-09 1.89524e-09 3.12002e-09 8.73231e-12 3.64423e-12
4072 1 0.000635 0.00892237 -0.0177691 -0.00152159 3.75327e-09 2.18322e-09 1.50152e-09 1.21032e-11 2.20566e-12
4158 1 0.000635 0.0100187 -0.0171303 -0.00147139 4.10704e-09 2.29488e-09 4.31254e-10 1.33677e-11 1.97739e-12
4243 1 0.000635 0.0111129 -0.0177578 -0.00132396 3.68657e-09 2.98968e-09 8.4592e-09 1.00237e-11 2.25426e-12
2695 1 0.000635 -0.00862175 -0.0164537 -0.00106324 -5.7398e-11 7.93898e-10 1.50292e-09 6.52867e-12 8.68566e-13
2866 1 0.000635 -0.00644886 -0.0164804 -0.0014039 1.86556e-09 1.7726e-09 1.27282e-08 1.37243e-11 9.77742e-12
3038 1 0.000635 -0.00427013 -0.0165025 -0.00170213 1.24924e-10 1.60724e-10 -5.03288e-10 2.62148e-11 2.4802e-12
3211 1 0.000635 -0.00207266 -0.0165075 -0.00177705 5.73494e-10 5.57065e-10 7.19826e-09 1.04496e-11 6.54576e-12
3384 1 0.000635 0.000126452 -0.0165062 -0.00174737 9.42903e-10 6.80476e-10 6.14506e-09 6.98894e-13 5.20274e-12
3557 1 0.000635 0.00232555 -0.0165046 -0.00171138 1.58913e-09 2.42665e-10 -4.44194e-09 1.81008e-13 4.93918e-12
3730 1 0.000635 0.0045249 -0.0165044 -0.00169096 2.16576e-09 5.08736e-10 -5.96032e-09 3.49563e-13 4.12786e-12
3902 1 0.000635 0.00672434 -0.0165048 -0.00167488 2.75892e-09 1.65527e-09 5.2916e-09 4.06134e-12 4.4438e-12
4073 1 0.000635 0.00892229 -0.0165013 -0.00159614 3.36336e-09 2.07007e-09 3.63774e-09 1.42003e-11 1.87299e-12
4244 1 0.000635 0.0111094 -0.0164888 -0.00136414 4.33733e-09 2.52766e-09 1.59093e-10 8.98155e-12 3.9636e-12
2696 1 0.000635 -0.00863299 -0.0151959 -0.00123731 -6.13514e-10 1.95681e-10 -2.9493e-09 4.25483e-12 2.82799e-12
2781 1 0.000635 -0.00753951 -0.015837 -0.00131088 -1.42112e-10 4.7969e-10 5.92299e-10 7.92828e-12 4.71815e-12
2867 1 0.000635 -0.00645724 -0.0152204 -0.00155879 8.96429e-10 1.0652e-09 7.39138e-09 1.82733e-11 1.1168e-11
2952 1 0.000635 -0.0053645 -0.0158619 -0.0016376 1.06642e-09 1.05197e-09 7.8452e-09 2.4177e-11 1.08042e-11
3039 1 0.000635 -0.00427109 -0.0152362 -0.00179754 1.91136e-10 1.15812e-10 -1.13403e-09 2.64814e-11 7.45742e-13
3125 1 0.000635 -0.00317216 -0.0158727 -0.00180369 5.46217e-10 5.30242e-10 7.06966e-09 2.13677e-11 3.22517e-12
3212 1 0.000635 -0.0020725 -0.015239 -0.00184645 5.11495e-10 1.26204e-10 6.53907e-10 7.87129e-12 5.8279e-12
3298 1 0.000635 -0.000972937 -0.0158729 -0.0018029 6.44557e-10 5.72732e-10 7.48114e-09 2.60313e-12 5.63571e-12
3385 1 0.000635 0.000126764 -0.015238 -0.00182291 8.49585e-10 -6.36104e-11 -4.17037e-09 8.63286e-13 5.2625e-12
3471 1 0.000635 0.00122619 -0.0158714 -0.00176909 1.22765e-09 -1.739e-10 -7.60995e-09 4.10317e-13 4.75438e-12
3558 1 0.000635 0.00232601 -0.0152369 -0.00179553 1.2295e-09 7.01494e-11 -4.517e-09 4.20239e-13 7.11675e-12
3644 1 0.000635 0.00342542 -0.0158706 -0.00174195 1.68632e-09 2.50847e-10 -5.72066e-09 2.62251e-13 5.01837e-12
3731 1 0.000635 0.00452534 -0.0152368 -0.00177374 1.72786e-09 3.9187e-10 -4.24985e-09 5.86873e-13 4.5689e-12
3817 1 0.000635 0.00562485 -0.0158709 -0.00172613 2.1797e-09 1.09111e-09 2.31293e-09 1.29439e-12 4.35513e-12
3903 1 0.000635 0.00672475 -0.015237 -0.00175351 2.04052e-09 2.17836e-09 1.90461e-08 4.53796e-12 4.16103e-12
3988 1 0.000635 0.00782399 -0.0158701 -0.00168912 3.12739e-09 1.35732e-09 -1.81061e-09 1.03711e-11 3.37332e-12
4074 1 0.000635 0.00892223 -0.0152332 -0.0016656 3.13447e-09 1.72741e-09 1.99582e-09 1.51928e-11 1.43183e-12
4159 1 0.000635 0.0100172 -0.0158618 -0.00152842 3.61159e-09 2.15221e-09 2.16305e-09 1.37215e-11 3.18157e-12
4245 1 0.000635 0.0111061 -0.0152199 -0.00140602 2.7824e-09 2.61047e-09 8.34512e-09 8.58408e-12 5.82497e-12
2611 1 0.000635 -0.00972764 -0.0145558 -0.00117219 -1.67581e-09 -7.98412e-10 -1.0073e-08 1.91637e-12 2.35444e-12
2697 1 0.000635 -0.00864611 -0.0139402 -0.00142615 -1.76476e-09 -1.15853e-09 -1.15112e-08 7.20373e-12 4.52943e-12
2782 1 0.000635 -0.00755115 -0.0145798 -0.00148861 -1.02463e-09 -5.70021e-10 -6.84665e-09 1.20931e-11 7.06068e-12
2868 1 0.000635 -0.00646535 -0.0139603 -0.00171299 -6.57933e-10 -4.80342e-10 -5.48369e-09 2.49011e-11 7.19709e-12
2953 1 0.000635 -0.00536871 -0.0145985 -0.00176217 6.99849e-10 7.39089e-10 6.6178e-09 2.64364e-11 5.45532e-12
3040 1 0.000635 -0.0042719 -0.0139687 -0.00187635 2.58788e-10 2.57792e-10 2.79869e-09 2.4358e-11 5.7796e-13
3126 1 0.000635 -0.00317222 -0.0146042 -0.00187224 3.04531e-10 1.05239e-10 1.04004e-09 1.73881e-11 2.40972e-12
3213 1 0.000635 -0.00207253 -0.0139698 -0.00190311 2.81577e-10 1.89668e-10 4.67146e-09 6.94779e-12 5.42453e-12
3299 1 0.000635 -0.000972797 -0.0146042 -0.00186912 4.90259e-10 2.12363e-10 3.1887e-09 3.0075e-12 4.30834e-12
3386 1 0.000635 0.000126961 -0.0139693 -0.00189035 3.90538e-10 1.12087e-10 1.23629e-09 5.10813e-12 5.58645e-12
3472 1 0.000635 0.00122657 -0.0146034 -0.00184751 6.7765e-10 6.93676e-10 9.38467e-09 2.68517e-12 4.35023e-12
3559 1 0.000635 0.00232642 -0.0139689 -0.00187513 6.61085e-10 4.31445e-10 4.49593e-09 7.72375e-12 1.23001e-11
3645 1 0.000635 0.00342586 -0.0146028 -0.00182388 1.25748e-09 -3.51152e-11 -6.74489e-09 1.36313e-12 6.10903e-12
3732 1 0.000635 0.00452574 -0.0139686 -0.00184795 1.09567e-09 7.73548e-10 5.70795e-09 1.40074e-12 4.265e-12
3818 1 0.000635 0.00562527 -0.0146029 -0.00180225 1.68096e-09 1.0129e-09 4.82617e-09 1.519e-12 3.92306e-12
3904 1 0.000635 0.00672516 -0.0139685 -0.00182294 1.66153e-09 1.33802e-09 9.39119e-09 4.65737e-12 3.1413e-12
3989 1 0.000635 0.00782433 -0.0146019 -0.00176165 2.07941e-09 1.93401e-09 1.2823e-08 1.10029e-11 2.51517e-12
4075 1 0.000635 0.00892254 -0.013965 -0.00173372 2.1296e-09 1.82639e-09 7.98691e-09 1.57677e-11 9.95575e-13
4160 1 0.000635 0.0100163 -0.0145935 -0.00158727 3.27006e-09 1.87252e-09 1.31714e-09 1.42809e-11 4.79428e-12
4246 1 0.000635 0.0111049 -0.0139516 -0.00146267 2.89521e-09 2.20063e-09 3.85043e-09 9.07778e-12 7.0423e-12
2527 1 0.000635 -0.0108352 -0.0126599 -0.00129618 -4.32039e-10 4.92692e-10 -1.56848e-09 2.56019e-12 3.60818e-12
2612 1 0.000635 -0.00974103 -0.0133005 -0.00136362 -1.3844e-09 -6.1171e-10 -8.51488e-09 4.24356e-12 3.76584e-12
2698 1 0.000635 -0.00865771 -0.0126832 -0.00160584 -8.99952e-10 -4.16828e-10 -6.05361e-09 1.71467e-11 3.73308e-12
2783 1 0.000635 -0.00756167 -0.0133219 -0.00166041 -5.48916e-10 -1.76939e-10 -3.57225e-09 2.16194e-11 5.28379e-12
2869 1 0.000635 -0.0064702 -0.0126967 -0.0018366 -3.58922e-10 -1.84763e-10 -2.4606e-09 3.2056e-11 3.85466e-12
2954 1 0.000635 -0.0053713 -0.0133329 -0.00186277 -1.32063e-10 -3.03323e-11 -1.09563e-09 2.90645e-11 2.95623e-12
3041 1 0.000635 -0.00427231 -0.0126998 -0.00192773 -4.84877e-12 2.00659e-11 -4.81558e-10 1.82929e-11 6.85231e-13
3127 1 0.000635 -0.00317238 -0.013335 -0.00192215 1.69662e-10 1.83994e-10 4.00756e-09 1.15307e-11 1.3586e-12
3214 1 0.000635 -0.0020727 -0.0127 -0.001944 9.35283e-06 -3.01332e-05 2.05232e-06 5.22005e-12 3.2476e-12
3300 1 0.000635 -0.00097281 -0.013335 -0.0019218 1.73647e-10 7.34243e-11 1.74352e-09 4.36174e-12 2.817e-12
3387 1 0.000635 0.000127 -0.0127 -0.001944 3.0168e-06 -3.44739e-05 3.14004e-06 6.67945e-12 3.71716e-12
3473 1 0.000635 0.00122681 -0.0133348 -0.00191434 2.4823e-10 -7.18161e-11 -3.20992e-09 6.51484e-12 3.56226e-12
3560 1 0.000635 0.0023267 -0.0127 -0.001944 2.87727e-06 -5.68049e-05 5.73936e-06 1.18141e-11 9.95823e-12
3646 1 0.000635 0.00342622 -0.0133344 -0.00189637 5.93152e-10 2.88171e-10 1.31138e-09 7.9264e-12 6.62715e-12
3733 1 0.000635 0.00452613 -0.0126998 -0.00190816 6.41875e-10 1.41547e-10 -3.19102e-09 5.14486e-12 2.72485e-12
3819 1 0.000635 0.00562568 -0.0133343 -0.00186744 1.00651e-09 1.21366e-09 1.51414e-08 1.9836e-12 2.74013e-12
3905 1 0.000635 0.00672556 -0.0126996 -0.00188128 1.1609e-09 9.45769e-10 8.68124e-09 5.04165e-12 2.12114e-12
3990 1 0.000635 0.00782478 -0.0133334 -0.00182749 2.16569e-09 7.42636e-10 -4.61681e-09 1.14541e-11 1.59772e-12
4076 1 0.000635 0.00892342 -0.012697 -0.00180249 2.16199e-09 9.97012e-10 -1.29585e-09 1.74162e-11 5.63113e-13
4161 1 0.000635 0.010017 -0.0133258 -0.00165661 2.58933e-09 1.66432e-09 1.79699e-09 1.5627e-11 5.44484e-12
4247 1 0.000635 0.0111072 -0.0126847 -0.00154333 1.51989e-09 2.28959e-09 9.25622e-09 1.0769e-11 7.60476e-12
4331 1 0.000635 0.0121916 -0.0133089 -0.00132619 2.35271e-10 3.39258e-09 2.04409e-08 4.7091e-12 3.51059e-12
2443 1 0.000635 -0.0119289 -0.0120188 -0.00122592 -1.01239e-09 7.4667e-11 -4.61574e-09 2.58232e-12 3.02291e-12
2528 1 0.000635 -0.0108473 -0.0114035 -0.00148062 -1.22242e-09 -4.39368e-10 -6.54219e-09 8.43106e-12 5.49623e-12
2613 1 0.000635 -0.00975303 -0.0120438 -0.0015465 -1.1799e-09 -6.07056e-10 -7.84758e-09 1.24661e-11 4.21148e-12
2699 1 0.000635 -0.00866604 -0.0114229 -0.0017609 -1.14023e-09 -8.14379e-10 -9.43856e-09 3.11034e-11 2.2803e-12
2784 1 0.000635 -0.00756848 -0.0120601 -0.00180208 -1.92569e-10 7.63037e-11 -6.98572e-10 3.26847e-11 2.61745e-12
2870 1 0.000635 -0.00647194 -0.0114295 -0.00191494 -1.18958e-10 9.61092e-12 -4.58079e-10 3.00137e-11 2.01622e-12
2955 1 0.000635 -0.0053722 -0.0120647 -0.00192473 4.23667e-11 1.70928e-10 5.54261e-09 2.47238e-11 1.80445e-12
3042 1 0.000635 -0.00427241 -0.01143 -0.001944 3.71486e-06 5.32828e-06 -3.96196e-07 9.73095e-12 1.30191e-13
3128 1 0.000635 -0.00317256 -0.012065 -0.001944 3.152e-06 -6.04948e-06 -1.11798e-07 6.46237e-12 3.40601e-13
3215 1 0.000635 -0.0020727 -0.01143 -0.001944 -1.16188e-09 -6.80905e-10 -5.04037e-07 2.84627e-12 5.17148e-36
3301 1 0.000635 -0.000972852 -0.012065 -0.001944 2.24427e-10 -8.04103e-06 -1.90853e-07 4.08437e-12 2.93863e-13
3388 1 0.000635 0.000127 -0.01143 -0.001944 3.40864e-10 -1.69407e-21 -4.72956e-07 4.22944e-12 5.17148e-36
3474 1 0.000635 0.00122685 -0.012065 -0.001944 -2.98448e-10 -6.23706e-06 -2.74927e-07 7.38398e-12 1.7671e-13
3561 1 0.000635 0.0023267 -0.01143 -0.001944 2.23316e-09 -5.10766e-10 -9.23096e-07 8.85723e-12 5.17148e-36
3647 1 0.000635 0.00342656 -0.012065 -0.001944 7.06742e-06 -2.25636e-05 1.8724e-06 7.4598e-12 1.85967e-12
3734 1 0.000635 0.00452641 -0.01143 -0.001944 2.8154e-06 -1.64399e-05 1.30707e-06 3.94725e-12 1.04621e-12
3820 1 0.000635 0.00562602 -0.012065 -0.00191692 6.14289e-10 4.19616e-10 3.38196e-09 3.89411e-12 1.89219e-12
3906 1 0.000635 0.00672588 -0.01143 -0.00192378 6.30882e-10 3.93842e-10 2.6353e-09 5.75652e-12 1.51879e-12
3991 1 0.000635 0.00782531 -0.0120645 -0.00188479 1.27728e-09 7.59923e-10 3.43193e-09 1.26249e-11 1.16e-12
4077 1 0.000635 0.00892461 -0.0114287 -0.00186804 1.30532e-09 8.13575e-10 8.14082e-10 2.06081e-11 4.98746e-13
4162 1 0.000635 0.0100194 -0.0120588 -0.00173812 1.65221e-09 1.45938e-09 3.91839e-09 1.87724e-11 4.21908e-12
4248 1 0.000635 0.0111123 -0.0114191 -0.00164408 8.93066e-10 2.04763e-09 9.55426e-09 1.48484e-11 6.79571e-12
4332 1 0.000635 0.0121963 -0.012043 -0.00142302 9.50131e-10 2.72605e-09 1.24656e-08 5.41763e-12 4.87488e-12
4417 1 0.000635 0.0132867 -0.0114019 -0.00131159 1.92763e-09 2.36847e-09 5.20561e-09 3.20379e-12 2.85833e-12
2359 1 0.000635 -0.0130239 -0.011379 -0.00116527 -2.28595e-10 1.0661e-09 1.34233e-09 4.63319e-12 2.04903e-12
2444 1 0.000635 -0.0119414 -0.0107629 -0.00141356 3.60898e-10 1.34236e-09 5.13601e-09 6.17758e-12 6.03178e-12
2614 1 0.000635 -0.00976258 -0.0107847 -0.00171199 -3.98455e-10 1.175e-10 -8.0288e-10 2.70852e-11 5.88173e-12
2785 1 0.000635 -0.00757144 -0.0107941 -0.00189967 -2.83422e-10 -8.46811e-11 -2.28157e-09 3.48441e-11 1.23954e-12
2956 1 0.000635 -0.00537226 -0.010795 -0.001944 4.1546e-06 1.28783e-05 -5.33094e-07 1.48287e-11 6.05623e-13
3129 1 0.000635 -0.00317256 -0.010795 -0.001944 -4.36172e-10 -1.98326e-09 -3.62607e-07 1.24761e-12 6.46435e-36
3302 1 0.000635 -0.000972852 -0.010795 -0.001944 -3.68683e-10 1.69407e-21 -1.95762e-07 7.2443e-13 5.17148e-36
3475 1 0.000635 0.00122685 -0.010795 -0.001944 3.3134e-10 1.69407e-21 -2.61524e-07 1.29289e-12 5.17148e-36
3648 1 0.000635 0.00342656 -0.010795 -0.001944 3.33665e-09 6.38803e-10 -6.58806e-07 4.41269e-12 1.0343e-35
3821 1 0.000635 0.00562626 -0.010795 -0.001944 -6.99164e-07 -1.316e-05 7.47596e-07 2.93462e-12 8.38373e-13
3992 1 0.000635 0.00782573 -0.010795 -0.00192657 6.22241e-10 3.94657e-10 1.80885e-09 1.27971e-11 1.02208e-12
4163 1 0.000635 0.0100225 -0.0107919 -0.00182214 1.21719e-09 9.67993e-10 1.98909e-09 2.38621e-11 2.21706e-12
4333 1 0.000635 0.0122038 -0.0107788 -0.00154014 2.29343e-09 1.33867e-09 -9.14965e-10 8.03529e-12 6.28128e-12
4502 1 0.000635 0.014379 -0.0107619 -0.0012138 -2.28131e-10 3.9661e-09 1.92498e-08 2.49804e-12 1.80655e-12
2276 1 0.000635 -0.0141373 -0.0094906 -0.00134138 6.58675e-11 1.52077e-09 3.62475e-09 8.37178e-12 5.73309e-12
2360 1 0.000635 -0.0130375 -0.0101245 -0.00136223 2.48101e-11 1.16588e-09 2.72732e-09 7.04468e-12 5.56177e-12
2445 1 0.000635 -0.0119539 -0.00950718 -0.00160216 7.30207e-11 9.08098e-10 3.12424e-09 1.82307e-11 1.0744e-11
2529 1 0.000635 -0.0108581 -0.0101458 -0.00165603 5.09293e-11 7.36999e-10 3.02649e-09 2.33362e-11 8.97202e-12
2615 1 0.000635 -0.00976895 -0.00952202 -0.00184967 2.28524e-10 5.5771e-10 4.6144e-09 4.88099e-11 1.08225e-11
2700 1 0.000635 -0.00867056 -0.0101584 -0.00187889 1.77007e-10 4.20938e-10 5.00003e-09 4.06326e-11 1.80231e-12
2786 1 0.000635 -0.00757197 -0.009525 -0.001944 1.00824e-05 1.23797e-05 -2.68474e-07 2.86907e-11 8.16997e-13
2871 1 0.000635 -0.00647211 -0.01016 -0.001944 6.08382e-06 1.51149e-05 -4.86502e-07 2.08977e-11 8.39658e-13
2957 1 0.000635 -0.00537226 -0.009525 -0.001944 1.68559e-09 -3.90428e-09 -5.61011e-07 3.43709e-12 3.74932e-35
3043 1 0.000635 -0.00427241 -0.01016 -0.001944 7.91627e-10 -2.94407e-09 -3.9982e-07 1.63118e-12 2.71503e-35
3130 1 0.000635 -0.00317256 -0.009525 -0.001944 2.0671e-17 0 2.16e-11 1.05285e-24 6.46435e-36
3216 1 0.000635 -0.0020727 -0.01016 -0.001944 -6.77626e-21 0 2.16e-11 0 5.17148e-36
3303 1 0.000635 -0.000972852 -0.009525 -0.001944 0 0 2.16e-11 0 5.17148e-36
3389 1 0.000635 0.000127 -0.01016 -0.001944 0 0 2.16e-11 0 5.17148e-36
3476 1 0.000635 0.00122685 -0.009525 -0.001944 0 0 2.16e-11 0 5.17148e-36
3562 1 0.000635 0.0023267 -0.01016 -0.001944 0 0 2.16e-11 0 5.17148e-36
3649 1 0.000635 0.00342656 -0.009525 -0.001944 4.13115e-17 0 2.16e-11 0 1.0343e-35
3735 1 0.000635 0.00452641 -0.01016 -0.001944 3.12683e-09 1.20391e-09 -4.94355e-07 2.48919e-12 3.10289e-35
3822 1 0.000635 0.00562626 -0.009525 -0.001944 2.6325e-09 8.86108e-10 -3.92534e-07 1.52473e-12 3.74932e-35
3907 1 0.000635 0.00672611 -0.01016 -0.001944 -4.33339e-06 -9.04308e-06 2.19927e-07 4.26423e-12 7.18197e-13
3993 1 0.000635 0.00782597 -0.009525 -0.001944 -8.03981e-06 -1.68577e-06 -2.12502e-07 1.00489e-11 5.73217e-13
4078 1 0.000635 0.0089255 -0.0101597 -0.00191957 6.74373e-10 3.7869e-10 -4.41669e-11 2.23271e-11 9.44677e-13
4164 1 0.000635 0.0100248 -0.0095241 -0.00189429 6.35699e-10 5.28788e-10 1.61553e-09 2.96127e-11 1.63877e-12
4249 1 0.000635 0.011118 -0.0101539 -0.00174959 1.36417e-09 1.01138e-09 8.53739e-10 2.26589e-11 4.36139e-12
4334 1 0.000635 0.0122119 -0.00951512 -0.00166325 1.37434e-09 1.16681e-09 1.47576e-11 1.34787e-11 5.95926e-12
4418 1 0.000635 0.0132959 -0.0101389 -0.00144163 1.65735e-10 2.95327e-09 1.28662e-08 4.0562e-12 4.92443e-12
4503 1 0.000635 0.0143896 -0.00949984 -0.00135367 1.32125e-10 3.05409e-09 1.28815e-08 2.41322e-12 3.63617e-12
1946 1 0.000635 -0.0185398 -0.00824067 -0.00125836 -3.82045e-10 1.66992e-09 1.01181e-09 1.12778e-11 2.78756e-12
2028 1 0.000635 -0.0174351 -0.00886534 -0.00122043 -3.69303e-10 1.47348e-09 9.30737e-10 7.96942e-12 4.13118e-12
2111 1 0.000635 -0.0163447 -0.00823673 -0.00138788 -6.31138e-10 1.93605e-10 -5.32512e-09 1.24768e-11 6.79712e-12
2193 1 0.000635 -0.0152403 -0.00886211 -0.00135472 -4.98894e-10 4.53795e-10 -3.86554e-09 1.01139e-11 7.4985e-12
2277 1 0.000635 -0.0141524 -0.00823882 -0.00155511 3.44444e-11 9.13797e-10 1.14749e-09 1.91524e-11 1.23495e-11
2361 1 0.000635 -0.0130519 -0.00887125 -0.00156686 4.66542e-10 1.51068e-09 5.65593e-09 1.99651e-11 1.17657e-11
2446 1 0.000635 -0.0119649 -0.00824942 -0.00177716 2.18007e-10 8.00915e-10 2.89257e-09 4.00369e-11 5.67626e-12
2530 1 0.000635 -0.0108664 -0.00888515 -0.00181038 4.37561e-10 9.5701e-10 6.06693e-09 4.9515e-11 6.78878e-12
2616 1 0.000635 -0.00977167 -0.008255 -0.001944 -1.00507e-05 -3.20823e-05 6.62558e-06 5.17412e-11 4.21004e-12
2701 1 0.000635 -0.00867182 -0.00889 -0.001944 1.61633e-05 4.42416e-06 7.71914e-08 3.9349e-11 1.70003e-12
2787 1 0.000635 -0.00757197 -0.008255 -0.001944 7.58012e-10 -9.34863e-09 -1.22319e-06 1.59981e-11 4.0079e-35
2872 1 0.000635 -0.00647211 -0.00889 -0.001944 1.75193e-09 -5.64834e-09 -8.3068e-07 7.48118e-12 3.74932e-35
2958 1 0.000635 -0.00537226 -0.008255 -0.001944 1.44607e-16 -7.15799e-17 2.16e-11 5.26426e-25 4.0079e-35
3044 1 0.000635 -0.00427241 -0.00889 -0.001944 -1.03289e-16 -4.76841e-17 2.16e-11 1.05285e-24 2.71503e-35
3131 1 0.000635 -0.00317256 -0.008255 -0.001944 3.09912e-17 -7.75431e-17 2.16e-11 5.26426e-25 1.87466e-35
3217 1 0.000635 -0.0020727 -0.00889 -0.001944 -3.38813e-21 -4.76866e-17 2.16e-11 0 5.17148e-36
3304 1 0.000635 -0.000972852 -0.008255 -0.001944 0 -7.15833e-17 2.16e-11 0 1.0343e-35
3390 1 0.000635 0.000127 -0.00889 -0.001944 0 -4.76866e-17 2.16e-11 0 5.17148e-36
3477 1 0.000635 0.00122685 -0.008255 -0.001944 0 -7.15833e-17 2.16e-11 0 1.0343e-35
3563 1 0.000635 0.0023267 -0.00889 -0.001944 0 -4.76858e-17 2.16e-11 0 5.17148e-36
3650 1 0.000635 0.00342656 -0.008255 -0.001944 4.13098e-17 -7.15825e-17 2.16e-11 0 1.0343e-35
3736 1 0.000635 0.00452641 -0.00889 -0.001944 4.13115e-17 -4.76841e-17 2.16e-11 0 3.10289e-35
3823 1 0.000635 0.00562626 -0.008255 -0.001944 -1.446e-16 -7.15791e-17 2.16e-11 0 4.0079e-35
3908 1 0.000635 0.00672611 -0.00889 -0.001944 1.78659e-09 -4.29932e-10 -3.93793e-07 1.47872e-12 1.68073e-35
3994 1 0.000635 0.00782597 -0.008255 -0.001944 6.70467e-10 -2.50885e-09 -5.92185e-07 4.0818e-12 1.0343e-35
4079 1 0.000635 0.00892582 -0.00889 -0.001944 -1.22843e-05 7.93931e-06 -6.33865e-07 2.05326e-11 9.21408e-13
4165 1 0.000635 0.0100257 -0.008255 -0.001944 9.80562e-06 -2.17412e-06 2.90008e-06 3.04142e-11 3.97194e-13
4250 1 0.000635 0.0111223 -0.00888754 -0.00184241 1.1184e-09 4.03807e-10 -4.18644e-09 3.12075e-11 1.98779e-12
4335 1 0.000635 0.012219 -0.0082506 -0.00177806 3.49275e-10 1.12401e-09 3.72652e-09 2.57153e-11 2.90821e-12
4419 1 0.000635 0.013306 -0.00887651 -0.00157839 1.24244e-09 1.3682e-09 1.22272e-09 9.08205e-12 5.76194e-12
4504 1 0.000635 0.0144008 -0.0082385 -0.00149998 2.46394e-10 2.24531e-09 8.54881e-09 5.79757e-12 5.36579e-12
4587 1 0.000635 0.0154849 -0.00886208 -0.00127886 -6.88998e-10 3.92224e-09 1.92309e-08 1.9473e-12 2.62977e-12
4670 1 0.000635 0.0165823 -0.00822603 -0.00122017 -5.67633e-10 3.89436e-09 1.81883e-08 1.79348e-12 2.12781e-12
1785 1 0.000635 -0.0207448 -0.00698105 -0.00125515 -9.14012e-10 1.01245e-09 -6.20399e-09 1.09732e-11 1.58586e-12
1865 1 0.000635 -0.0196431 -0.00761231 -0.00127006 -1.07276e-09 5.99203e-10 -9.22757e-09 1.25675e-11 1.95658e-12
1947 1 0.000635 -0.0185508 -0.00697993 -0.0014117 -7.92145e-10 5.6631e-10 -6.82846e-09 1.49203e-11 2.63201e-12
2029 1 0.000635 -0.0174485 -0.00760996 -0.0014126 -4.6041e-10 8.19573e-10 -2.11411e-09 1.475e-11 3.90683e-12
2112 1 0.000635 -0.0163568 -0.00697907 -0.00156422 -5.53527e-11 1.00637e-09 2.20819e-09 1.88888e-11 4.52959e-12
2194 1 0.000635 -0.0152546 -0.00760913 -0.00156157 -8.89533e-10 -6.64746e-10 -1.01968e-08 1.88342e-11 8.79505e-12
2278 1 0.000635 -0.0141636 -0.00698053 -0.00172616 2.51634e-10 1.03591e-09 4.00217e-09 2.4725e-11 4.59693e-12
2362 1 0.000635 -0.0130638 -0.00761435 -0.00174795 4.91984e-11 7.02585e-10 6.16238e-10 2.98589e-11 6.60202e-12
2447 1 0.000635 -0.0119701 -0.00698413 -0.00188602 -1.55438e-10 2.0381e-10 -2.57139e-09 3.32523e-11 1.25564e-12
2531 1 0.000635 -0.010871 -0.00761966 -0.00191586 -6.61303e-11 1.48577e-10 -1.47067e-09 4.16738e-11 2.0772e-12
2617 1 0.000635 -0.00977167 -0.006985 -0.001944 1.4091e-05 8.13344e-06 -1.82738e-06 3.27682e-11 1.20965e-12
2702 1 0.000635 -0.00867182 -0.00762 -0.001944 -3.938e-09 -1.24444e-08 -1.7525e-06 3.25516e-11 2.9736e-35
2788 1 0.000635 -0.00757197 -0.006985 -0.001944 1.44605e-16 -2.38958e-17 2.16e-11 0 4.0079e-35
2873 1 0.000635 -0.00647211 -0.00762 -0.001944 -1.44609e-16 2.38967e-17 2.16e-11 0 4.0079e-35
2959 1 0.000635 -0.00537226 -0.006985 -0.001944 1.44605e-16 -2.38958e-17 2.16e-11 0 4.0079e-35
3045 1 0.000635 -0.00427241 -0.00762 -0.001944 -1.13623e-16 2.98573e-17 2.16e-11 0 2.90896e-35
3132 1 0.000635 -0.00317256 -0.006985 -0.001944 3.09912e-17 -2.98573e-17 2.16e-11 0 1.87466e-35
3218 1 0.000635 -0.0020727 -0.00762 -0.001944 -1.69407e-21 2.38958e-17 2.16e-11 0 1.0343e-35
3305 1 0.000635 -0.000972852 -0.006985 -0.001944 0 -2.38967e-17 2.16e-11 0 1.0343e-35
3391 1 0.000635 0.000127 -0.00762 -0.001944 0 2.38967e-17 2.16e-11 0 1.0343e-35
3478 1 0.000635 0.00122685 -0.006985 -0.001944 0 -2.38967e-17 2.16e-11 0 1.0343e-35