ITEM: TIMESTEP
1090000
ITEM: NUMBER OF ATOMS
6793
ITEM: BOX BOUNDS ff ff ff
-8.9999999999999997e-02 8.9999999999999997e-02
-8.9999999999999997e-02 8.9999999999999997e-02
-4.0000000000000001e-02 4.0000000000000001e-02
ITEM: ATOMS id type radius x y z fx fy fz c_bendingE c_stretchingE
3213 1 0.000635 -0.00207106 -0.0139541 -0.0115803 -4.69755e-12 1.11294e-10 2.8372e-10 2.80624e-09 3.15689e-10
3299 1 0.000635 -0.000974362 -0.01459 -0.011554 -6.17256e-11 7.9502e-11 2.41182e-10 2.65233e-09 9.79737e-11
3386 1 0.000635 0.000126118 -0.0139659 -0.0116596 -1.40881e-11 -1.86947e-10 -1.0417e-09 1.99476e-09 3.41925e-11
3041 1 0.000635 -0.00426501 -0.0126836 -0.0115755 -8.22004e-11 3.58558e-11 -4.81895e-12 1.67869e-09 1.14572e-10
3127 1 0.000635 -0.00316714 -0.013318 -0.0115777 -5.51681e-11 2.92285e-11 1.75132e-11 2.03669e-09 2.98166e-10
3214 1 0.000635 -0.0020727 -0.0127 -0.011772 -9.09232e-05 2.49091e-05 -2.98549e-06 2.38754e-09 6.76848e-11
3300 1 0.000635 -0.000973289 -0.0133351 -0.0117472 -1.15676e-11 -8.13139e-11 -9.23626e-10 1.79175e-09 3.52117e-11
3387 1 0.000635 0.000127 -0.0127 -0.011772 -3.78231e-05 -6.09304e-05 3.13779e-06 1.75912e-10 1.59042e-11
3473 1 0.000635 0.00122602 -0.0133337 -0.0117162 -6.72466e-11 7.73612e-11 7.15071e-10 2.06674e-10 8.76057e-11
3560 1 0.000635 0.0023267 -0.0127 -0.011772 5.71549e-05 -0.000249998 8.62997e-05 2.99752e-10 2.23517e-10
3646 1 0.000635 0.00341359 -0.0133051 -0.0115035 -2.19902e-10 3.45888e-10 1.27421e-09 2.75723e-10 1.89028e-10
3733 1 0.000635 0.00451837 -0.012683 -0.0115684 -7.76906e-11 -1.35123e-11 -2.58522e-11 1.9544e-10 3.09941e-11
2870 1 0.000635 -0.00646294 -0.0114157 -0.0115812 1.32165e-10 1.48074e-10 9.60278e-10 1.31457e-09 4.71975e-11
2955 1 0.000635 -0.00536368 -0.0120495 -0.0115767 1.93022e-11 1.44466e-10 7.4426e-10 1.45495e-09 5.22411e-11
3042 1 0.000635 -0.00427241 -0.01143 -0.011772 8.32548e-07 5.99561e-05 -1.31777e-05 1.25662e-09 1.69004e-11
3128 1 0.000635 -0.00317256 -0.012065 -0.011772 -3.56437e-05 9.02971e-05 -1.59806e-05 1.60956e-09 6.43493e-11
3215 1 0.000635 -0.0020727 -0.01143 -0.011772 3.19139e-08 -8.04696e-08 -3.42512e-06 1.1169e-10 5.17148e-36
3301 1 0.000635 -0.000972852 -0.012065 -0.011772 4.16772e-08 -1.85304e-05 -2.89604e-06 1.03429e-10 1.54116e-12
3388 1 0.000635 0.000127 -0.01143 -0.011772 7.77341e-09 0 -9.90278e-07 1.85703e-11 5.17148e-36
3474 1 0.000635 0.00122685 -0.012065 -0.011772 -2.99933e-08 1.54913e-06 -3.79372e-06 1.98598e-10 1.42651e-14
3561 1 0.000635 0.0023267 -0.01143 -0.011772 1.01867e-07 -8.1434e-08 -4.86763e-06 2.43846e-10 5.17148e-36
3647 1 0.000635 0.00342656 -0.012065 -0.011772 4.84397e-05 3.25857e-05 1.6598e-06 2.27615e-10 3.10186e-11
3734 1 0.000635 0.00452641 -0.01143 -0.011772 2.26929e-05 1.46471e-05 3.18647e-06 1.615e-10 6.63243e-12
3820 1 0.000635 0.00562062 -0.0120538 -0.0116056 -1.09485e-11 -1.28016e-10 -5.77045e-10 1.48405e-10 7.48014e-12
3906 1 0.000635 0.00672205 -0.0114224 -0.0116336 -2.07754e-11 -6.57453e-11 -2.01171e-10 1.25287e-10 1.95702e-12
2785 1 0.000635 -0.00756253 -0.0107822 -0.0115876 4.38886e-11 -4.75458e-12 4.01143e-10 1.22557e-09 7.08109e-11
2956 1 0.000635 -0.00537226 -0.010795 -0.011772 2.85816e-05 3.63616e-05 -1.10398e-05 1.05579e-09 7.46865e-12
3129 1 0.000635 -0.00317256 -0.010795 -0.011772 -7.4939e-09 -6.99567e-08 -3.439e-06 1.12585e-10 6.46435e-36
3302 1 0.000635 -0.000972852 -0.010795 -0.011772 3.84687e-09 0 -2.18287e-07 9.00998e-13 5.17148e-36
3475 1 0.000635 0.00122685 -0.010795 -0.011772 7.38238e-09 -1.69407e-21 -4.92107e-07 4.58006e-12 5.17148e-36
3648 1 0.000635 0.00342656 -0.010795 -0.011772 8.40511e-08 -5.26763e-08 -3.83708e-06 1.48524e-10 1.0343e-35
3821 1 0.000635 0.00562626 -0.010795 -0.011772 1.2993e-05 6.37004e-06 3.27185e-06 1.10852e-10 1.89798e-12
3992 1 0.000635 0.0078235 -0.0107909 -0.0116644 -7.65945e-11 9.88554e-11 7.14006e-10 6.70736e-10 4.72915e-11
2615 1 0.000635 -0.00976108 -0.00951359 -0.011591 2.83717e-10 2.1271e-10 1.67218e-09 1.28736e-09 1.61797e-10
2700 1 0.000635 -0.0086621 -0.0101483 -0.0115926 1.24496e-10 1.11066e-10 1.01614e-09 1.19383e-09 1.07205e-10
2786 1 0.000635 -0.00757197 -0.009525 -0.011772 7.04233e-05 4.19199e-06 -8.21178e-06 7.87679e-10 3.66936e-11
2871 1 0.000635 -0.00647211 -0.01016 -0.011772 5.11468e-05 1.8451e-05 -9.43329e-06 9.15235e-10 1.70401e-11
2957 1 0.000635 -0.00537226 -0.009525 -0.011772 -4.74465e-08 -4.89848e-08 -3.35141e-06 1.0699e-10 3.74932e-35
3043 1 0.000635 -0.00427241 -0.01016 -0.011772 -3.10475e-08 -5.93374e-08 -3.41831e-06 1.11257e-10 2.71503e-35
3130 1 0.000635 -0.00317256 -0.009525 -0.011772 2.0671e-17 0 2.16e-11 1.05285e-24 6.46435e-36
3216 1 0.000635 -0.0020727 -0.01016 -0.011772 -6.77626e-21 0 2.16e-11 0 5.17148e-36
3303 1 0.000635 -0.000972852 -0.009525 -0.011772 0 0 2.16e-11 0 5.17148e-36
3389 1 0.000635 0.000127 -0.01016 -0.011772 0 0 2.16e-11 0 5.17148e-36
3476 1 0.000635 0.00122685 -0.009525 -0.011772 0 0 2.16e-11 0 5.17148e-36
3562 1 0.000635 0.0023267 -0.01016 -0.011772 0 0 2.16e-11 0 5.17148e-36
3649 1 0.000635 0.00342656 -0.009525 -0.011772 4.13115e-17 0 2.16e-11 0 1.0343e-35
3735 1 0.000635 0.00452641 -0.01016 -0.011772 5.09557e-08 -3.45284e-08 -3.01661e-06 8.97236e-11 3.10289e-35
3822 1 0.000635 0.00562626 -0.009525 -0.011772 3.9428e-08 -1.78411e-08 -2.41719e-06 5.80195e-11 3.74932e-35
3907 1 0.000635 0.00672611 -0.01016 -0.011772 1.77911e-05 -1.06331e-05 3.99773e-06 8.92132e-11 1.93101e-12
3993 1 0.000635 0.00782597 -0.009525 -0.011772 9.15348e-06 -2.99774e-05 2.21552e-06 2.65654e-10 3.26486e-12
4078 1 0.000635 0.0089241 -0.0101553 -0.0116709 5.87279e-11 -9.18547e-11 -5.5184e-10 1.30187e-09 5.9278e-11
4164 1 0.000635 0.0100121 -0.00950756 -0.0115537 -1.41631e-10 8.16906e-11 5.0431e-10 1.18613e-09 1.01578e-10
2446 1 0.000635 -0.0119614 -0.00824919 -0.0115616 -8.84338e-11 -4.90193e-10 -1.43421e-09 2.06744e-09 1.71441e-11
2530 1 0.000635 -0.0108604 -0.00888076 -0.0115825 2.28676e-10 -3.56317e-11 7.13587e-10 1.71518e-09 5.6843e-11
2616 1 0.000635 -0.00977167 -0.008255 -0.011772 -1.39888e-05 -7.86366e-05 1.39402e-05 4.84363e-10 3.58991e-11
2701 1 0.000635 -0.00867182 -0.00889 -0.011772 8.88361e-05 -8.04264e-06 -7.72836e-06 6.44972e-10 6.45172e-11
2787 1 0.000635 -0.00757197 -0.008255 -0.011772 -6.2912e-08 -3.50409e-08 -3.22457e-06 9.89333e-11 4.0079e-35
2872 1 0.000635 -0.00647211 -0.00889 -0.011772 -5.75894e-08 -4.03074e-08 -3.26667e-06 1.01633e-10 3.74932e-35
2958 1 0.000635 -0.00537226 -0.008255 -0.011772 1.44607e-16 -7.15799e-17 2.16e-11 5.26426e-25 4.0079e-35
3044 1 0.000635 -0.00427241 -0.00889 -0.011772 -1.03289e-16 -4.76841e-17 2.16e-11 1.05285e-24 2.71503e-35
3131 1 0.000635 -0.00317256 -0.008255 -0.011772 3.09912e-17 -7.75431e-17 2.16e-11 5.26426e-25 1.87466e-35
3217 1 0.000635 -0.0020727 -0.00889 -0.011772 -3.38813e-21 -4.76866e-17 2.16e-11 0 5.17148e-36
3304 1 0.000635 -0.000972852 -0.008255 -0.011772 0 -7.15833e-17 2.16e-11 0 1.0343e-35
3390 1 0.000635 0.000127 -0.00889 -0.011772 0 -4.76866e-17 2.16e-11 0 5.17148e-36
3477 1 0.000635 0.00122685 -0.008255 -0.011772 0 -7.15833e-17 2.16e-11 0 1.0343e-35
3563 1 0.000635 0.0023267 -0.00889 -0.011772 0 -4.76858e-17 2.16e-11 0 5.17148e-36
3650 1 0.000635 0.00342656 -0.008255 -0.011772 4.13098e-17 -7.15825e-17 2.16e-11 0 1.0343e-35
3736 1 0.000635 0.00452641 -0.00889 -0.011772 4.13115e-17 -4.76841e-17 2.16e-11 0 3.10289e-35
3823 1 0.000635 0.00562626 -0.008255 -0.011772 -1.446e-16 -7.15791e-17 2.16e-11 0 4.0079e-35
3908 1 0.000635 0.00672611 -0.00889 -0.011772 2.16129e-08 -2.45796e-08 -2.11225e-06 4.33292e-11 1.68073e-35
3994 1 0.000635 0.00782597 -0.008255 -0.011772 -1.49815e-08 -6.35811e-08 -2.87641e-06 8.78997e-11 1.0343e-35
4079 1 0.000635 0.00892582 -0.00889 -0.011772 -7.08108e-05 7.72236e-05 -1.90215e-05 6.75905e-10 3.78864e-11
4165 1 0.000635 0.0100257 -0.008255 -0.011772 0.000231181 3.70336e-05 5.59839e-05 9.48578e-10 3.24551e-10
2362 1 0.000635 -0.0130602 -0.00761428 -0.0115041 6.39731e-10 1.36412e-10 2.99099e-09 1.89242e-09 6.38001e-11
2447 1 0.000635 -0.0119689 -0.00698432 -0.0116737 6.00652e-11 -1.27539e-10 -4.34494e-10 2.81533e-10 5.33978e-11
2531 1 0.000635 -0.0108711 -0.00761984 -0.0117334 -3.11675e-11 -1.14525e-10 -4.5742e-10 3.46468e-10 9.06543e-12
2617 1 0.000635 -0.00977167 -0.006985 -0.011772 -6.68087e-06 -3.80749e-06 -2.25242e-06 7.97961e-11 2.61647e-13
2702 1 0.000635 -0.00867182 -0.00762 -0.011772 -7.48052e-08 -1.877e-08 -3.25286e-06 1.00742e-10 2.9736e-35
2788 1 0.000635 -0.00757197 -0.006985 -0.011772 1.44605e-16 -2.38958e-17 2.16e-11 0 4.0079e-35
2873 1 0.000635 -0.00647211 -0.00762 -0.011772 -1.44609e-16 2.38967e-17 2.16e-11 0 4.0079e-35
2959 1 0.000635 -0.00537226 -0.006985 -0.011772 1.44605e-16 -2.38958e-17 2.16e-11 0 4.0079e-35
3045 1 0.000635 -0.00427241 -0.00762 -0.011772 -1.13623e-16 2.98573e-17 2.16e-11 0 2.90896e-35
3132 1 0.000635 -0.00317256 -0.006985 -0.011772 3.09912e-17 -2.98573e-17 2.16e-11 0 1.87466e-35
3218 1 0.000635 -0.0020727 -0.00762 -0.011772 -1.69407e-21 2.38958e-17 2.16e-11 0 1.0343e-35
3305 1 0.000635 -0.000972852 -0.006985 -0.011772 0 -2.38967e-17 2.16e-11 0 1.0343e-35
3391 1 0.000635 0.000127 -0.00762 -0.011772 0 2.38967e-17 2.16e-11 0 1.0343e-35
3478 1 0.000635 0.00122685 -0.006985 -0.011772 0 -2.38967e-17 2.16e-11 0 1.0343e-35
3564 1 0.000635 0.0023267 -0.00762 -0.011772 0 2.38967e-17 2.16e-11 0 1.0343e-35
3651 1 0.000635 0.00342656 -0.006985 -0.011772 4.13081e-17 -2.38967e-17 2.16e-11 0 1.0343e-35
3737 1 0.000635 0.00452641 -0.00762 -0.011772 4.13217e-17 2.38958e-17 2.16e-11 0 2.06859e-35
3824 1 0.000635 0.00562626 -0.006985 -0.011772 -1.44599e-16 -2.3895e-17 2.16e-11 0 4.0079e-35
3909 1 0.000635 0.00672611 -0.00762 -0.011772 6.19757e-17 2.38958e-17 2.16e-11 0 2.9736e-35
3995 1 0.000635 0.00782597 -0.006985 -0.011772 -6.77626e-21 -2.38967e-17 2.16e-11 0 1.0343e-35
4080 1 0.000635 0.00892582 -0.00762 -0.011772 -5.54009e-08 -1.22237e-07 -5.35712e-06 4.08516e-10 1.0343e-35
4166 1 0.000635 0.0100257 -0.006985 -0.011772 -7.85527e-05 4.50287e-05 -1.51579e-05 7.32189e-10 3.81435e-11
4251 1 0.000635 0.0111194 -0.00761372 -0.0116408 -1.74432e-10 7.78034e-11 9.76586e-10 1.15539e-09 4.7993e-10
2363 1 0.000635 -0.0130537 -0.0063451 -0.0115106 1.84505e-10 1.68994e-11 3.04508e-10 3.22247e-10 8.42796e-11
2448 1 0.000635 -0.0119706 -0.00571542 -0.0117273 -1.86634e-10 -8.87145e-11 -2.02291e-09 1.87901e-10 7.49217e-11
2532 1 0.000635 -0.0108715 -0.00635 -0.011772 -5.4438e-05 -6.22447e-05 5.78849e-06 9.92399e-11 2.52054e-11
2618 1 0.000635 -0.00977167 -0.005715 -0.011772 -2.94249e-09 5.09654e-09 -8.65727e-07 1.4186e-11 6.85221e-35
2703 1 0.000635 -0.00867182 -0.00635 -0.011772 -3.11249e-10 5.39099e-10 -3.40571e-07 2.1927e-12 2.9736e-35
2789 1 0.000635 -0.00757197 -0.005715 -0.011772 1.44602e-16 4.76832e-17 2.16e-11 0 3.74932e-35
2874 1 0.000635 -0.00647211 -0.00635 -0.011772 -1.44609e-16 7.15816e-17 2.16e-11 0 4.0079e-35
2960 1 0.000635 -0.00537226 -0.005715 -0.011772 1.44604e-16 4.76841e-17 2.16e-11 5.26426e-25 3.74932e-35
3046 1 0.000635 -0.00427241 -0.00635 -0.011772 -1.13621e-16 7.75431e-17 2.16e-11 0 2.90896e-35
3133 1 0.000635 -0.00317256 -0.005715 -0.011772 2.0671e-17 4.76858e-17 2.16e-11 5.26426e-25 6.46435e-36
3219 1 0.000635 -0.0020727 -0.00635 -0.011772 -5.0822e-21 7.15842e-17 2.16e-11 0 1.0343e-35
3306 1 0.000635 -0.000972852 -0.005715 -0.011772 0 4.76866e-17 2.16e-11 0 5.17148e-36
3392 1 0.000635 0.000127 -0.00635 -0.011772 0 7.1585e-17 2.16e-11 0 1.0343e-35
3479 1 0.000635 0.00122685 -0.005715 -0.011772 0 4.76866e-17 2.16e-11 0 5.17148e-36
3565 1 0.000635 0.0023267 -0.00635 -0.011772 0 7.15842e-17 2.16e-11 0 1.0343e-35
3652 1 0.000635 0.00342656 -0.005715 -0.011772 4.13098e-17 4.76858e-17 2.16e-11 0 1.0343e-35
3738 1 0.000635 0.00452641 -0.00635 -0.011772 4.13183e-17 7.15816e-17 2.16e-11 0 2.06859e-35
3825 1 0.000635 0.00562626 -0.005715 -0.011772 -1.44597e-16 4.76841e-17 2.16e-11 0 3.74932e-35
3910 1 0.000635 0.00672611 -0.00635 -0.011772 6.19774e-17 7.15825e-17 2.16e-11 0 2.9736e-35
3996 1 0.000635 0.00782597 -0.005715 -0.011772 -6.77626e-21 4.76849e-17 2.16e-11 0 5.17148e-36
4081 1 0.000635 0.00892582 -0.00635 -0.011772 -1.04097e-08 -1.80301e-08 -1.15844e-06 2.54379e-11 1.0343e-35
4167 1 0.000635 0.0100257 -0.005715 -0.011772 -3.19923e-08 -5.54123e-08 -3.28128e-06 2.08114e-10 6.85221e-35
4252 1 0.000635 0.0111255 -0.00635 -0.011772 -0.000226089 -3.41572e-05 -4.11017e-05 1.0459e-09 1.66845e-10
4337 1 0.000635 0.0122219 -0.00571653 -0.0117135 -1.19525e-11 -1.57127e-11 1.53385e-10 1.4781e-09 4.23712e-10
2364 1 0.000635 -0.0130411 -0.0050759 -0.011494 1.20218e-10 -3.4314e-11 2.61554e-11 2.52735e-10 2.02164e-10
2533 1 0.000635 -0.0108715 -0.00508 -0.011772 -1.37067e-05 -8.0306e-06 -3.26437e-06 1.94479e-10 1.11606e-12
2704 1 0.000635 -0.00867182 -0.00508 -0.011772 -6.19774e-17 -2.3845e-17 2.16e-11 0 1.42216e-35
2875 1 0.000635 -0.00647211 -0.00508 -0.011772 -1.44605e-16 -2.38442e-17 2.16e-11 0 3.49075e-35
3047 1 0.000635 -0.00427241 -0.00508 -0.011772 -1.03287e-16 -2.38433e-17 2.16e-11 1.57928e-24 2.45645e-35
3220 1 0.000635 -0.0020727 -0.00508 -0.011772 -3.38813e-21 -2.38442e-17 2.16e-11 0 2.58574e-36
3393 1 0.000635 0.000127 -0.00508 -0.011772 0 -2.38442e-17 2.16e-11 0 2.58574e-36
3566 1 0.000635 0.0023267 -0.00508 -0.011772 -3.38813e-21 -2.38459e-17 2.16e-11 0 2.58574e-36
3739 1 0.000635 0.00452641 -0.00508 -0.011772 4.13081e-17 -2.38433e-17 2.16e-11 5.26426e-25 2.84431e-35
3911 1 0.000635 0.00672611 -0.00508 -0.011772 6.19859e-17 -2.38442e-17 2.16e-11 0 1.42216e-35
4082 1 0.000635 0.00892582 -0.00508 -0.011772 -8.47033e-21 -2.3845e-17 2.16e-11 0 2.58574e-36
4253 1 0.000635 0.0111255 -0.00508 -0.011772 -4.38124e-05 2.50939e-05 -9.7875e-06 7.15125e-10 1.17767e-11
4422 1 0.000635 0.0133039 -0.00507776 -0.0115463 -1.67362e-10 7.03694e-11 8.43132e-10 1.89829e-09 1.25414e-10
2449 1 0.000635 -0.0119714 -0.004445 -0.011772 -0.000162286 -0.000114626 5.53245e-05 2.97415e-10 1.28144e-10
2534 1 0.000635 -0.0108715 -0.00381 -0.011772 -1.48846e-07 -8.25781e-08 -5.12988e-06 2.53528e-10 4.65433e-35
2619 1 0.000635 -0.00977167 -0.004445 -0.011772 -3.41713e-09 5.91865e-09 -3.94123e-07 2.93754e-12 6.01185e-35
2705 1 0.000635 -0.00867182 -0.00381 -0.011772 -8.2623e-17 0 2.16e-11 1.05285e-24 2.06859e-35
2790 1 0.000635 -0.00757197 -0.004445 -0.011772 1.44602e-16 -5.96282e-17 2.16e-11 5.26426e-25 3.74932e-35
2876 1 0.000635 -0.00647211 -0.00381 -0.011772 -1.44605e-16 0 2.16e-11 0 3.23218e-35
2961 1 0.000635 -0.00537226 -0.004445 -0.011772 1.44604e-16 -5.9629e-17 2.16e-11 5.26426e-25 3.74932e-35
3048 1 0.000635 -0.00427241 -0.00381 -0.011772 -1.03291e-16 0 2.16e-11 0 1.68073e-35
3134 1 0.000635 -0.00317256 -0.004445 -0.011772 3.09963e-17 -5.36693e-17 2.16e-11 1.57928e-24 8.40366e-36
3221 1 0.000635 -0.0020727 -0.00381 -0.011772 -6.77626e-21 0 2.16e-11 2.10571e-24 0
3307 1 0.000635 -0.000972852 -0.004445 -0.011772 0 -4.77053e-17 2.16e-11 1.05285e-24 5.17148e-36
3394 1 0.000635 0.000127 -0.00381 -0.011772 0 0 2.16e-11 1.05285e-24 0
3480 1 0.000635 0.00122685 -0.004445 -0.011772 0 -4.77053e-17 2.16e-11 1.05285e-24 5.17148e-36
3567 1 0.000635 0.0023267 -0.00381 -0.011772 0 0 2.16e-11 2.10571e-24 0
3653 1 0.000635 0.00342656 -0.004445 -0.011772 3.09811e-17 -5.36701e-17 2.16e-11 1.05285e-24 8.40366e-36
3740 1 0.000635 0.00452641 -0.00381 -0.011772 4.13217e-17 7.70372e-34 2.16e-11 0 1.29287e-35
3826 1 0.000635 0.00562626 -0.004445 -0.011772 -1.44597e-16 -5.9629e-17 2.16e-11 5.26426e-25 3.74932e-35
3912 1 0.000635 0.00672611 -0.00381 -0.011772 8.26298e-17 0 2.16e-11 1.05285e-24 2.06859e-35
3997 1 0.000635 0.00782597 -0.004445 -0.011772 -3.38813e-21 -4.77061e-17 2.16e-11 1.05285e-24 5.17148e-36
4083 1 0.000635 0.00892582 -0.00381 -0.011772 -6.77626e-21 0 2.16e-11 1.05285e-24 0
4168 1 0.000635 0.0100257 -0.004445 -0.011772 1.35758e-08 2.35139e-08 -5.16234e-07 5.05321e-12 6.01185e-35
4254 1 0.000635 0.0111255 -0.00381 -0.011772 8.89867e-08 -2.11879e-08 -3.9366e-06 1.47904e-10 4.65433e-35
4338 1 0.000635 0.0122254 -0.004445 -0.011772 0.00012019 -0.000125685 2.79703e-05 1.58819e-09 1.68889e-10
4423 1 0.000635 0.0133082 -0.00380855 -0.0115716 5.2503e-11 4.65626e-11 -1.49002e-10 1.11561e-09 1.18451e-10
2450 1 0.000635 -0.0119714 -0.003175 -0.011772 1.75307e-05 4.192e-05 3.44259e-06 3.20759e-10 1.68878e-11
2535 1 0.000635 -0.0108715 -0.00254 -0.011772 -1.87155e-07 -3.71331e-09 -5.41604e-06 2.82778e-10 6.33506e-35
2620 1 0.000635 -0.00977167 -0.003175 -0.011772 -1.3427e-16 4.1748e-17 2.16e-11 5.26426e-25 5.81792e-35
2706 1 0.000635 -0.00867182 -0.00254 -0.011772 -7.2301e-17 -5.97417e-18 2.16e-11 0 1.61609e-35
2791 1 0.000635 -0.00757197 -0.003175 -0.011772 1.44602e-16 4.77053e-17 2.16e-11 5.26426e-25 3.55539e-35
2877 1 0.000635 -0.00647211 -0.00254 -0.011772 -1.44605e-16 -1.19365e-17 2.16e-11 0 3.23218e-35
2962 1 0.000635 -0.00537226 -0.003175 -0.011772 1.44604e-16 4.7707e-17 2.16e-11 0 3.55539e-35
3049 1 0.000635 -0.00427241 -0.00254 -0.011772 -1.03284e-16 -1.19373e-17 2.16e-11 5.26426e-25 1.93931e-35
3135 1 0.000635 -0.00317256 -0.003175 -0.011772 3.09963e-17 4.17472e-17 2.16e-11 1.05285e-24 6.46435e-36
3222 1 0.000635 -0.0020727 -0.00254 -0.011772 0 -1.43996e-20 2.16e-11 0 0
3308 1 0.000635 -0.000972852 -0.003175 -0.011772 0 3.57823e-17 2.16e-11 1.05285e-24 3.23218e-36
3395 1 0.000635 0.000127 -0.00254 -0.011772 0 -1.35525e-20 2.16e-11 0 0
3481 1 0.000635 0.00122685 -0.003175 -0.011772 0 3.57823e-17 2.16e-11 1.05285e-24 3.23218e-36
3568 1 0.000635 0.0023267 -0.00254 -0.011772 -6.77626e-21 -1.35525e-20 2.16e-11 0 0
3654 1 0.000635 0.00342656 -0.003175 -0.011772 3.09777e-17 4.17463e-17 2.16e-11 1.05285e-24 6.46435e-36
3741 1 0.000635 0.00452641 -0.00254 -0.011772 4.13115e-17 -1.19382e-17 2.16e-11 5.26426e-25 1.93931e-35
3827 1 0.000635 0.00562626 -0.003175 -0.011772 -1.44595e-16 4.77053e-17 2.16e-11 5.26426e-25 3.55539e-35
3913 1 0.000635 0.00672611 -0.00254 -0.011772 7.23095e-17 -5.97502e-18 2.16e-11 0 1.61609e-35
3998 1 0.000635 0.00782597 -0.003175 -0.011772 0 3.57823e-17 2.16e-11 1.05285e-24 3.23218e-36
4084 1 0.000635 0.00892582 -0.00254 -0.011772 -8.47033e-21 -1.27055e-20 2.16e-11 0 0
4169 1 0.000635 0.0100257 -0.003175 -0.011772 1.3427e-16 4.1748e-17 2.16e-11 5.26426e-25 5.81792e-35
4255 1 0.000635 0.0111255 -0.00254 -0.011772 8.32409e-08 -3.32537e-08 -3.73871e-06 1.33707e-10 6.33506e-35
4339 1 0.000635 0.0122254 -0.003175 -0.011772 5.57628e-05 8.87529e-06 1.6038e-05 1.73005e-10 1.05893e-11
4424 1 0.000635 0.0133033 -0.00253937 -0.0115511 1.65814e-11 2.64875e-11 5.53697e-11 1.9148e-10 2.15906e-11
2451 1 0.000635 -0.0119714 -0.001905 -0.011772 -1.11561e-06 2.3981e-05 8.95974e-06 3.23074e-10 5.22942e-12
2536 1 0.000635 -0.0108715 -0.00127 -0.011772 -1.83627e-07 -3.74188e-09 -5.35427e-06 2.76182e-10 6.33506e-35
2621 1 0.000635 -0.00977167 -0.001905 -0.011772 -1.44592e-16 -1.19229e-17 2.16e-11 5.26426e-25 6.39971e-35
2707 1 0.000635 -0.00867182 -0.00127 -0.011772 -7.2301e-17 5.96909e-18 2.16e-11 5.26426e-25 1.61609e-35
2792 1 0.000635 -0.00757197 -0.001905 -0.011772 1.44605e-16 -1.19229e-17 2.16e-11 0 3.29682e-35
2878 1 0.000635 -0.00647211 -0.00127 -0.011772 -1.44605e-16 1.19331e-17 2.16e-11 0 3.23218e-35
2963 1 0.000635 -0.00537226 -0.001905 -0.011772 1.44602e-16 -1.19246e-17 2.16e-11 0 3.29682e-35
3050 1 0.000635 -0.00427241 -0.00127 -0.011772 -1.13613e-16 5.96993e-18 2.16e-11 0 2.13324e-35
3136 1 0.000635 -0.00317256 -0.001905 -0.011772 4.13081e-17 -1.19229e-17 2.16e-11 0 5.81792e-36
3223 1 0.000635 -0.0020727 -0.00127 -0.011772 0 7.6233e-21 2.16e-11 0 0
3309 1 0.000635 -0.000972852 -0.001905 -0.011772 0 -1.19229e-17 2.16e-11 0 6.46435e-37
3396 1 0.000635 0.000127 -0.00127 -0.011772 0 6.77626e-21 2.16e-11 0 0
3482 1 0.000635 0.00122685 -0.001905 -0.011772 0 -1.19229e-17 2.16e-11 0 6.46435e-37
3569 1 0.000635 0.0023267 -0.00127 -0.011772 -6.77626e-21 6.77626e-21 2.16e-11 0 0
3655 1 0.000635 0.00342656 -0.001905 -0.011772 2.06608e-17 -1.19229e-17 2.16e-11 0 1.93931e-36
3742 1 0.000635 0.00452641 -0.00127 -0.011772 4.13149e-17 1.19331e-17 2.16e-11 5.26426e-25 1.93931e-35
3828 1 0.000635 0.00562626 -0.001905 -0.011772 -1.44599e-16 -1.19229e-17 2.16e-11 0 3.29682e-35
3914 1 0.000635 0.00672611 -0.00127 -0.011772 7.23078e-17 5.96909e-18 2.16e-11 5.26426e-25 1.61609e-35
3999 1 0.000635 0.00782597 -0.001905 -0.011772 -6.77626e-21 -1.19229e-17 2.16e-11 5.26426e-25 6.46435e-37
4085 1 0.000635 0.00892582 -0.00127 -0.011772 -6.77626e-21 6.77626e-21 2.16e-11 0 0
4170 1 0.000635 0.0100257 -0.001905 -0.011772 1.44599e-16 -1.19229e-17 2.16e-11 0 6.39971e-35
4256 1 0.000635 0.0111255 -0.00127 -0.011772 9.59892e-08 -7.41433e-09 -3.91429e-06 1.46253e-10 6.33506e-35
4340 1 0.000635 0.0122254 -0.001905 -0.011772 1.75605e-05 3.28767e-06 1.01419e-05 1.66984e-10 1.12861e-12
4425 1 0.000635 0.0133024 -0.00126976 -0.0115483 2.17834e-10 1.54896e-11 -7.36844e-10 1.81288e-10 4.25008e-12
2452 1 0.000635 -0.0119714 -0.000635 -0.011772 -1.11632e-05 7.65996e-06 1.20469e-05 3.12619e-10 1.0085e-12
2622 1 0.000635 -0.00977167 -0.000635 -0.011772 -1.44599e-16 -8.47033e-21 2.16e-11 0 6.33506e-35
2793 1 0.000635 -0.00757197 -0.000635 -0.011772 1.44604e-16 -1.19339e-17 2.16e-11 5.26426e-25 3.23218e-35
2964 1 0.000635 -0.00537226 -0.000635 -0.011772 1.44604e-16 -1.19365e-17 2.16e-11 0 3.23218e-35
3137 1 0.000635 -0.00317256 -0.000635 -0.011772 4.13183e-17 -8.47033e-21 2.16e-11 0 5.17148e-36
3310 1 0.000635 -0.000972852 -0.000635 -0.011772 0 -8.47033e-21 2.16e-11 0 0
3483 1 0.000635 0.00122685 -0.000635 -0.011772 0 -8.47033e-21 2.16e-11 0 0
3656 1 0.000635 0.00342656 -0.000635 -0.011772 3.09811e-17 -5.97078e-18 2.16e-11 5.26426e-25 3.23218e-36
3829 1 0.000635 0.00562626 -0.000635 -0.011772 -1.44597e-16 -1.19339e-17 2.16e-11 5.26426e-25 3.23218e-35
4000 1 0.000635 0.00782597 -0.000635 -0.011772 0 -8.47033e-21 2.16e-11 0 0
4171 1 0.000635 0.0100257 -0.000635 -0.011772 1.44599e-16 -8.47033e-21 2.16e-11 0 6.33506e-35
4341 1 0.000635 0.0122254 -0.000635 -0.011772 4.28041e-06 1.85125e-06 7.12965e-06 1.75792e-10 1.01666e-13
2453 1 0.000635 -0.0119714 0.000635 -0.011772 -1.11632e-05 -7.65996e-06 1.20469e-05 3.12619e-10 1.0085e-12
2537 1 0.000635 -0.0108715 0 -0.011772 -1.82273e-07 1.92073e-17 -5.33523e-06 2.74179e-10 6.33506e-35
2623 1 0.000635 -0.00977167 0.000635 -0.011772 -1.44599e-16 -3.38813e-21 2.16e-11 0 6.33506e-35
2708 1 0.000635 -0.00867182 0 -0.011772 -8.26247e-17 5.92923e-21 2.16e-11 0 2.06859e-35
2794 1 0.000635 -0.00757197 0.000635 -0.011772 1.44602e-16 -3.38813e-21 2.16e-11 0 3.23218e-35
2879 1 0.000635 -0.00647211 0 -0.011772 -1.44605e-16 5.0822e-21 2.16e-11 0 3.23218e-35
2965 1 0.000635 -0.00537226 0.000635 -0.011772 1.44602e-16 -3.38813e-21 2.16e-11 0 3.23218e-35
3051 1 0.000635 -0.00427241 0 -0.011772 -1.03282e-16 5.92923e-21 2.16e-11 0 1.68073e-35
3138 1 0.000635 -0.00317256 0.000635 -0.011772 4.13149e-17 -3.38813e-21 2.16e-11 0 5.17148e-36
3224 1 0.000635 -0.0020727 0 -0.011772 0 6.77626e-21 2.16e-11 0 0
3311 1 0.000635 -0.000972852 0.000635 -0.011772 0 -3.38813e-21 2.16e-11 0 0
3397 1 0.000635 0.000127 0 -0.011772 0 6.77626e-21 2.16e-11 0 0
3484 1 0.000635 0.00122685 0.000635 -0.011772 0 -3.38813e-21 2.16e-11 0 0
3570 1 0.000635 0.0023267 0 -0.011772 -3.38813e-21 5.0822e-21 2.16e-11 5.26426e-25 0
3657 1 0.000635 0.00342656 0.000635 -0.011772 2.06574e-17 -3.38813e-21 2.16e-11 0 1.29287e-36
3743 1 0.000635 0.00452641 0 -0.011772 4.13132e-17 5.92923e-21 2.16e-11 0 1.29287e-35
3830 1 0.000635 0.00562626 0.000635 -0.011772 -1.44595e-16 -3.38813e-21 2.16e-11 0 3.23218e-35
3915 1 0.000635 0.00672611 0 -0.011772 8.26315e-17 5.92923e-21 2.16e-11 0 2.06859e-35
4001 1 0.000635 0.00782597 0.000635 -0.011772 0 -3.38813e-21 2.16e-11 0 0
4086 1 0.000635 0.00892582 0 -0.011772 -6.77626e-21 6.77626e-21 2.16e-11 0 0
4172 1 0.000635 0.0100257 0.000635 -0.011772 1.44599e-16 -3.38813e-21 2.16e-11 0 6.33506e-35
4257 1 0.000635 0.0111255 0 -0.011772 9.88457e-08 3.22762e-17 -3.94534e-06 1.48613e-10 6.33506e-35
4342 1 0.000635 0.0122254 0.000635 -0.011772 4.28041e-06 -1.85125e-06 7.12965e-06 1.75792e-10 1.01666e-13
4426 1 0.000635 0.0133025 -9.55939e-17 -0.011549 -3.54876e-10 -9.09401e-14 1.45772e-09 1.83761e-10 1.93949e-12
2454 1 0.000635 -0.0119714 0.001905 -0.011772 -1.11561e-06 -2.3981e-05 8.95974e-06 3.23074e-10 5.22942e-12
2538 1 0.000635 -0.0108715 0.00127 -0.011772 -1.83627e-07 3.74188e-09 -5.35427e-06 2.76182e-10 6.33506e-35
2624 1 0.000635 -0.00977167 0.001905 -0.011772 -1.44595e-16 1.19221e-17 2.16e-11 0 6.39971e-35
2709 1 0.000635 -0.00867182 0.00127 -0.011772 -8.26264e-17 0 2.16e-11 0 2.06859e-35
2795 1 0.000635 -0.00757197 0.001905 -0.011772 1.44604e-16 1.19221e-17 2.16e-11 0 3.29682e-35
2880 1 0.000635 -0.00647211 0.00127 -0.011772 -1.44605e-16 0 2.16e-11 0 3.23218e-35
2966 1 0.000635 -0.00537226 0.001905 -0.011772 1.44604e-16 1.19238e-17 2.16e-11 0 3.29682e-35
3052 1 0.000635 -0.00427241 0.00127 -0.011772 -1.0328e-16 0 2.16e-11 0 1.68073e-35
3139 1 0.000635 -0.00317256 0.001905 -0.011772 4.13115e-17 1.19229e-17 2.16e-11 0 5.81792e-36
3225 1 0.000635 -0.0020727 0.00127 -0.011772 0 0 2.16e-11 0 0
3312 1 0.000635 -0.000972852 0.001905 -0.011772 0 1.19212e-17 2.16e-11 0 6.46435e-37
3398 1 0.000635 0.000127 0.00127 -0.011772 0 0 2.16e-11 0 0
3485 1 0.000635 0.00122685 0.001905 -0.011772 0 1.19212e-17 2.16e-11 0 6.46435e-37
3571 1 0.000635 0.0023267 0.00127 -0.011772 -6.77626e-21 0 2.16e-11 0 0
3658 1 0.000635 0.00342656 0.001905 -0.011772 2.06591e-17 1.19221e-17 2.16e-11 0 1.93931e-36
3744 1 0.000635 0.00452641 0.00127 -0.011772 4.13115e-17 0 2.16e-11 0 1.29287e-35
3831 1 0.000635 0.00562626 0.001905 -0.011772 -1.44597e-16 1.19221e-17 2.16e-11 0 3.29682e-35
3916 1 0.000635 0.00672611 0.00127 -0.011772 8.26331e-17 0 2.16e-11 0 2.06859e-35
4002 1 0.000635 0.00782597 0.001905 -0.011772 -3.38813e-21 1.19221e-17 2.16e-11 0 6.46435e-37
4087 1 0.000635 0.00892582 0.00127 -0.011772 -6.77626e-21 0 2.16e-11 0 0
4173 1 0.000635 0.0100257 0.001905 -0.011772 1.44599e-16 1.19212e-17 2.16e-11 0 6.39971e-35
4258 1 0.000635 0.0111255 0.00127 -0.011772 9.59892e-08 7.41433e-09 -3.91429e-06 1.46253e-10 6.33506e-35
4343 1 0.000635 0.0122254 0.001905 -0.011772 1.75605e-05 -3.28767e-06 1.01419e-05 1.66984e-10 1.12861e-12
4427 1 0.000635 0.0133024 0.00126976 -0.0115483 2.17804e-10 -1.52709e-11 -7.36846e-10 1.81288e-10 4.25008e-12
2455 1 0.000635 -0.0119714 0.003175 -0.011772 1.75307e-05 -4.192e-05 3.44259e-06 3.20759e-10 1.68878e-11
2539 1 0.000635 -0.0108715 0.00254 -0.011772 -1.87155e-07 3.71331e-09 -5.41604e-06 2.82778e-10 6.33506e-35
2625 1 0.000635 -0.00977167 0.003175 -0.011772 -1.3427e-16 -4.1748e-17 2.16e-11 5.26426e-25 5.81792e-35
2710 1 0.000635 -0.00867182 0.00254 -0.011772 -7.2301e-17 5.97417e-18 2.16e-11 0 1.61609e-35
2796 1 0.000635 -0.00757197 0.003175 -0.011772 1.44602e-16 -4.77053e-17 2.16e-11 5.26426e-25 3.55539e-35
2881 1 0.000635 -0.00647211 0.00254 -0.011772 -1.44605e-16 1.19365e-17 2.16e-11 0 3.23218e-35
2967 1 0.000635 -0.00537226 0.003175 -0.011772 1.44604e-16 -4.7707e-17 2.16e-11 0 3.55539e-35
3053 1 0.000635 -0.00427241 0.00254 -0.011772 -1.03284e-16 1.19373e-17 2.16e-11 5.26426e-25 1.93931e-35
3140 1 0.000635 -0.00317256 0.003175 -0.011772 3.09963e-17 -4.17472e-17 2.16e-11 1.05285e-24 6.46435e-36
3226 1 0.000635 -0.0020727 0.00254 -0.011772 0 1.43996e-20 2.16e-11 0 0
3313 1 0.000635 -0.000972852 0.003175 -0.011772 0 -3.57823e-17 2.16e-11 1.05285e-24 3.23218e-36
3399 1 0.000635 0.000127 0.00254 -0.011772 0 1.35525e-20 2.16e-11 0 0
3486 1 0.000635 0.00122685 0.003175 -0.011772 0 -3.57823e-17 2.16e-11 1.05285e-24 3.23218e-36
3572 1 0.000635 0.0023267 0.00254 -0.011772 -6.77626e-21 1.35525e-20 2.16e-11 0 0
3659 1 0.000635 0.00342656 0.003175 -0.011772 3.09777e-17 -4.17463e-17 2.16e-11 1.05285e-24 6.46435e-36
3745 1 0.000635 0.00452641 0.00254 -0.011772 4.13115e-17 1.19382e-17 2.16e-11 5.26426e-25 1.93931e-35
3832 1 0.000635 0.00562626 0.003175 -0.011772 -1.44595e-16 -4.77053e-17 2.16e-11 5.26426e-25 3.55539e-35
3917 1 0.000635 0.00672611 0.00254 -0.011772 7.23095e-17 5.97502e-18 2.16e-11 0 1.61609e-35
4003 1 0.000635 0.00782597 0.003175 -0.011772 0 -3.57823e-17 2.16e-11 1.05285e-24 3.23218e-36
4088 1 0.000635 0.00892582 0.00254 -0.011772 -8.47033e-21 1.27055e-20 2.16e-11 0 0
4174 1 0.000635 0.0100257 0.003175 -0.011772 1.3427e-16 -4.1748e-17 2.16e-11 5.26426e-25 5.81792e-35
4259 1 0.000635 0.0111255 0.00254 -0.011772 8.32409e-08 3.32537e-08 -3.73871e-06 1.33707e-10 6.33506e-35
4344 1 0.000635 0.0122254 0.003175 -0.011772 5.57628e-05 -8.87529e-06 1.6038e-05 1.73005e-10 1.05893e-11
4428 1 0.000635 0.0133033 0.00253937 -0.0115511 1.66368e-11 -2.66976e-11 5.53813e-11 1.9148e-10 2.15906e-11
2456 1 0.000635 -0.0119714 0.004445 -0.011772 -0.000162286 0.000114626 5.53245e-05 2.97415e-10 1.28144e-10
2540 1 0.000635 -0.0108715 0.00381 -0.011772 -1.48846e-07 8.25781e-08 -5.12988e-06 2.53528e-10 4.65433e-35
2626 1 0.000635 -0.00977167 0.004445 -0.011772 -3.41713e-09 -5.91865e-09 -3.94123e-07 2.93754e-12 6.01185e-35
2711 1 0.000635 -0.00867182 0.00381 -0.011772 -8.2623e-17 0 2.16e-11 1.05285e-24 2.06859e-35
2797 1 0.000635 -0.00757197 0.004445 -0.011772 1.44602e-16 5.96282e-17 2.16e-11 5.26426e-25 3.74932e-35
2882 1 0.000635 -0.00647211 0.00381 -0.011772 -1.44605e-16 0 2.16e-11 0 3.23218e-35
2968 1 0.000635 -0.00537226 0.004445 -0.011772 1.44604e-16 5.9629e-17 2.16e-11 5.26426e-25 3.74932e-35
3054 1 0.000635 -0.00427241 0.00381 -0.011772 -1.03291e-16 0 2.16e-11 0 1.68073e-35
3141 1 0.000635 -0.00317256 0.004445 -0.011772 3.09963e-17 5.36693e-17 2.16e-11 1.57928e-24 8.40366e-36
3227 1 0.000635 -0.0020727 0.00381 -0.011772 -6.77626e-21 0 2.16e-11 2.10571e-24 0
3314 1 0.000635 -0.000972852 0.004445 -0.011772 0 4.77053e-17 2.16e-11 1.05285e-24 5.17148e-36
3400 1 0.000635 0.000127 0.00381 -0.011772 0 0 2.16e-11 1.05285e-24 0
3487 1 0.000635 0.00122685 0.004445 -0.011772 0 4.77053e-17 2.16e-11 1.05285e-24 5.17148e-36
3573 1 0.000635 0.0023267 0.00381 -0.011772 0 0 2.16e-11 2.10571e-24 0
3660 1 0.000635 0.00342656 0.004445 -0.011772 3.09811e-17 5.36701e-17 2.16e-11 1.05285e-24 8.40366e-36
3746 1 0.000635 0.00452641 0.00381 -0.011772 4.13217e-17 0 2.16e-11 0 1.29287e-35