ITEM: TIMESTEP
540000
ITEM: NUMBER OF ATOMS
6793
ITEM: BOX BOUNDS ff ff ff
-8.9999999999999997e-02 8.9999999999999997e-02
-8.9999999999999997e-02 8.9999999999999997e-02
-4.0000000000000001e-02 4.0000000000000001e-02
ITEM: ATOMS id type radius x y z fx fy fz c_bendingE c_stretchingE
3386 1 0.000635 0.000126846 -0.0139685 -0.00576082 -1.94241e-10 4.53439e-11 1.7748e-09 5.26896e-10 1.44851e-11
3214 1 0.000635 -0.0020727 -0.0127 -0.005832 -5.9481e-05 3.27534e-05 -3.10768e-07 5.78224e-10 3.33857e-11
3300 1 0.000635 -0.00097303 -0.0133348 -0.00581447 -8.20722e-11 3.77031e-11 1.68185e-09 4.20184e-10 2.0288e-11
3387 1 0.000635 0.000127 -0.0127 -0.005832 2.51955e-06 -3.8616e-05 1.67032e-06 6.34581e-11 4.55946e-12
3473 1 0.000635 0.00122661 -0.0133342 -0.00578588 5.60482e-11 -3.7286e-10 -4.67515e-09 5.75863e-11 2.26561e-11
3560 1 0.000635 0.0023267 -0.0127 -0.005832 3.6606e-05 -0.000192216 3.84592e-05 9.66819e-11 1.20046e-10
3042 1 0.000635 -0.00427241 -0.01143 -0.005832 -4.9515e-06 3.78146e-05 -3.30048e-06 2.88218e-10 7.79563e-12
3128 1 0.000635 -0.00317256 -0.012065 -0.005832 -2.49671e-05 5.86514e-05 -5.33927e-06 3.64308e-10 2.81977e-11
3215 1 0.000635 -0.0020727 -0.01143 -0.005832 1.64707e-08 -6.38035e-08 -3.05002e-06 8.84806e-11 5.17148e-36
3301 1 0.000635 -0.000972852 -0.012065 -0.005832 3.55349e-08 4.07291e-06 -2.94498e-06 7.84578e-11 7.87932e-14
3388 1 0.000635 0.000127 -0.01143 -0.005832 1.35986e-09 -3.38813e-21 -6.27465e-07 7.44662e-12 5.17148e-36
3474 1 0.000635 0.00122685 -0.012065 -0.005832 -1.83574e-08 -2.44277e-06 -1.64849e-06 6.15183e-11 2.55579e-14
3561 1 0.000635 0.0023267 -0.01143 -0.005832 1.16084e-08 -3.70031e-08 -2.86592e-06 7.91402e-11 5.17148e-36
3647 1 0.000635 0.00342656 -0.012065 -0.005832 2.73684e-05 -3.6111e-05 1.09365e-05 7.95344e-11 6.61677e-12
3734 1 0.000635 0.00452641 -0.01143 -0.005832 1.19895e-05 -1.40332e-05 5.91354e-06 5.78237e-11 1.13395e-12
2956 1 0.000635 -0.00537226 -0.010795 -0.005832 1.11084e-05 2.41498e-05 -2.39502e-06 2.55613e-10 2.28056e-12
3129 1 0.000635 -0.00317256 -0.010795 -0.005832 -1.20753e-08 -5.57698e-08 -3.07898e-06 9.01257e-11 6.46435e-36
3302 1 0.000635 -0.000972852 -0.010795 -0.005832 1.56801e-09 -1.69407e-21 -1.54613e-07 4.51945e-13 5.17148e-36
3475 1 0.000635 0.00122685 -0.010795 -0.005832 2.15234e-09 0 -4.067e-07 3.12722e-12 5.17148e-36
3648 1 0.000635 0.00342656 -0.010795 -0.005832 3.2476e-08 -2.29984e-08 -2.53602e-06 6.31377e-11 1.0343e-35
3821 1 0.000635 0.00562626 -0.010795 -0.005832 6.53152e-06 -1.63835e-05 4.53938e-06 4.1645e-11 9.99076e-13
3992 1 0.000635 0.00782464 -0.0107934 -0.00576108 -4.42383e-11 7.25607e-11 1.41173e-09 1.99201e-10 2.41355e-11
2786 1 0.000635 -0.00757197 -0.009525 -0.005832 3.89806e-05 8.5352e-06 -2.23515e-06 2.24395e-10 1.01683e-11
2871 1 0.000635 -0.00647211 -0.01016 -0.005832 2.55304e-05 1.52936e-05 -2.18637e-06 2.37828e-10 4.03733e-12
2957 1 0.000635 -0.00537226 -0.009525 -0.005832 -3.68622e-08 -3.64976e-08 -2.88194e-06 7.9201e-11 3.74932e-35
3043 1 0.000635 -0.00427241 -0.01016 -0.005832 -2.76473e-08 -4.65022e-08 -3.0186e-06 8.67253e-11 2.71503e-35
3130 1 0.000635 -0.00317256 -0.009525 -0.005832 2.0671e-17 0 2.16e-11 1.05285e-24 6.46435e-36
3216 1 0.000635 -0.0020727 -0.01016 -0.005832 -6.77626e-21 0 2.16e-11 0 5.17148e-36
3303 1 0.000635 -0.000972852 -0.009525 -0.005832 0 0 2.16e-11 0 5.17148e-36
3389 1 0.000635 0.000127 -0.01016 -0.005832 0 0 2.16e-11 0 5.17148e-36
3476 1 0.000635 0.00122685 -0.009525 -0.005832 0 0 2.16e-11 0 5.17148e-36
3562 1 0.000635 0.0023267 -0.01016 -0.005832 0 0 2.16e-11 0 5.17148e-36
3649 1 0.000635 0.00342656 -0.009525 -0.005832 4.13115e-17 0 2.16e-11 0 1.0343e-35
3735 1 0.000635 0.00452641 -0.01016 -0.005832 2.91023e-08 -1.17288e-08 -2.07989e-06 4.28584e-11 3.10289e-35
3822 1 0.000635 0.00562626 -0.009525 -0.005832 2.32017e-08 -5.17657e-09 -1.65899e-06 2.7643e-11 3.74932e-35
3907 1 0.000635 0.00672611 -0.01016 -0.005832 2.5034e-06 -2.56885e-05 3.2373e-06 4.53628e-11 2.71132e-12
3993 1 0.000635 0.00782597 -0.009525 -0.005832 -6.88487e-06 -1.97667e-05 5.6736e-07 1.24453e-10 2.84131e-12
2616 1 0.000635 -0.00977167 -0.008255 -0.005832 1.86066e-05 -2.59483e-05 2.62398e-06 1.79709e-10 1.05249e-11
2701 1 0.000635 -0.00867182 -0.00889 -0.005832 4.99628e-05 1.41087e-06 -2.22787e-06 2.06812e-10 1.86131e-11
2787 1 0.000635 -0.00757197 -0.008255 -0.005832 -4.39294e-08 -1.77636e-08 -2.4894e-06 5.92509e-11 4.0079e-35
2872 1 0.000635 -0.00647211 -0.00889 -0.005832 -4.18188e-08 -2.6477e-08 -2.69369e-06 6.93279e-11 3.74932e-35
2958 1 0.000635 -0.00537226 -0.008255 -0.005832 1.44607e-16 -7.15799e-17 2.16e-11 5.26426e-25 4.0079e-35
3044 1 0.000635 -0.00427241 -0.00889 -0.005832 -1.03289e-16 -4.76841e-17 2.16e-11 1.05285e-24 2.71503e-35
3131 1 0.000635 -0.00317256 -0.008255 -0.005832 3.09912e-17 -7.75431e-17 2.16e-11 5.26426e-25 1.87466e-35
3217 1 0.000635 -0.0020727 -0.00889 -0.005832 -3.38813e-21 -4.76866e-17 2.16e-11 0 5.17148e-36
3304 1 0.000635 -0.000972852 -0.008255 -0.005832 0 -7.15833e-17 2.16e-11 0 1.0343e-35
3390 1 0.000635 0.000127 -0.00889 -0.005832 0 -4.76866e-17 2.16e-11 0 5.17148e-36
3477 1 0.000635 0.00122685 -0.008255 -0.005832 0 -7.15833e-17 2.16e-11 0 1.0343e-35
3563 1 0.000635 0.0023267 -0.00889 -0.005832 0 -4.76858e-17 2.16e-11 0 5.17148e-36
3650 1 0.000635 0.00342656 -0.008255 -0.005832 4.13098e-17 -7.15825e-17 2.16e-11 0 1.0343e-35
3736 1 0.000635 0.00452641 -0.00889 -0.005832 4.13115e-17 -4.76841e-17 2.16e-11 0 3.10289e-35
3823 1 0.000635 0.00562626 -0.008255 -0.005832 -1.446e-16 -7.15791e-17 2.16e-11 0 4.0079e-35
3908 1 0.000635 0.00672611 -0.00889 -0.005832 9.94624e-09 -1.42053e-08 -1.54108e-06 2.25683e-11 1.68073e-35
3994 1 0.000635 0.00782597 -0.008255 -0.005832 -9.22403e-09 -3.62967e-08 -2.0924e-06 4.82852e-11 1.0343e-35
4079 1 0.000635 0.00892582 -0.00889 -0.005832 -4.5937e-05 4.61334e-05 -8.44172e-06 2.46982e-10 1.48908e-11
4165 1 0.000635 0.0100257 -0.008255 -0.005832 0.000119814 -5.1001e-06 2.83296e-05 3.35911e-10 7.06495e-11
2447 1 0.000635 -0.0119708 -0.00698476 -0.00577768 2.67579e-10 2.86409e-11 4.20327e-09 1.14531e-10 7.93959e-12
2531 1 0.000635 -0.0108715 -0.00762001 -0.00581426 -1.16939e-11 -1.37251e-10 6.85334e-11 1.45282e-10 1.73514e-12
2617 1 0.000635 -0.00977167 -0.006985 -0.005832 -4.20945e-06 -2.40382e-06 -1.79475e-06 3.72183e-11 1.04608e-13
2702 1 0.000635 -0.00867182 -0.00762 -0.005832 -4.67074e-08 -6.8519e-09 -2.29231e-06 5.01646e-11 2.9736e-35
2788 1 0.000635 -0.00757197 -0.006985 -0.005832 1.44605e-16 -2.38958e-17 2.16e-11 0 4.0079e-35
2873 1 0.000635 -0.00647211 -0.00762 -0.005832 -1.44609e-16 2.38967e-17 2.16e-11 0 4.0079e-35
2959 1 0.000635 -0.00537226 -0.006985 -0.005832 1.44605e-16 -2.38958e-17 2.16e-11 0 4.0079e-35
3045 1 0.000635 -0.00427241 -0.00762 -0.005832 -1.13623e-16 2.98573e-17 2.16e-11 0 2.90896e-35
3132 1 0.000635 -0.00317256 -0.006985 -0.005832 3.09912e-17 -2.98573e-17 2.16e-11 0 1.87466e-35
3218 1 0.000635 -0.0020727 -0.00762 -0.005832 -1.69407e-21 2.38958e-17 2.16e-11 0 1.0343e-35
3305 1 0.000635 -0.000972852 -0.006985 -0.005832 0 -2.38967e-17 2.16e-11 0 1.0343e-35
3391 1 0.000635 0.000127 -0.00762 -0.005832 0 2.38967e-17 2.16e-11 0 1.0343e-35
3478 1 0.000635 0.00122685 -0.006985 -0.005832 0 -2.38967e-17 2.16e-11 0 1.0343e-35
3564 1 0.000635 0.0023267 -0.00762 -0.005832 0 2.38967e-17 2.16e-11 0 1.0343e-35
3651 1 0.000635 0.00342656 -0.006985 -0.005832 4.13081e-17 -2.38967e-17 2.16e-11 0 1.0343e-35
3737 1 0.000635 0.00452641 -0.00762 -0.005832 4.13217e-17 2.38958e-17 2.16e-11 0 2.06859e-35
3824 1 0.000635 0.00562626 -0.006985 -0.005832 -1.44599e-16 -2.3895e-17 2.16e-11 0 4.0079e-35
3909 1 0.000635 0.00672611 -0.00762 -0.005832 6.19757e-17 2.38958e-17 2.16e-11 0 2.9736e-35
3995 1 0.000635 0.00782597 -0.006985 -0.005832 -6.77626e-21 -2.38967e-17 2.16e-11 0 1.0343e-35
4080 1 0.000635 0.00892582 -0.00762 -0.005832 -2.80575e-08 -7.12892e-08 -3.76054e-06 1.87791e-10 1.0343e-35
4166 1 0.000635 0.0100257 -0.006985 -0.005832 -3.59072e-05 2.06222e-05 -6.39809e-06 2.78141e-10 7.91805e-12
2448 1 0.000635 -0.011971 -0.00571505 -0.00579964 -1.95759e-10 -4.69211e-11 -2.42246e-09 4.60015e-11 1.30172e-11
2532 1 0.000635 -0.0108715 -0.00635 -0.005832 -2.72139e-05 -2.06706e-05 1.30845e-06 3.17887e-11 4.04587e-12
2618 1 0.000635 -0.00977167 -0.005715 -0.005832 -3.89272e-10 6.74239e-10 -4.78869e-07 4.3359e-12 6.85221e-35
2703 1 0.000635 -0.00867182 -0.00635 -0.005832 -1.67149e-10 2.89511e-10 -1.56388e-07 4.62333e-13 2.9736e-35
2789 1 0.000635 -0.00757197 -0.005715 -0.005832 1.44602e-16 4.76832e-17 2.16e-11 0 3.74932e-35
2874 1 0.000635 -0.00647211 -0.00635 -0.005832 -1.44609e-16 7.15816e-17 2.16e-11 0 4.0079e-35
2960 1 0.000635 -0.00537226 -0.005715 -0.005832 1.44604e-16 4.76841e-17 2.16e-11 5.26426e-25 3.74932e-35
3046 1 0.000635 -0.00427241 -0.00635 -0.005832 -1.13621e-16 7.75431e-17 2.16e-11 0 2.90896e-35
3133 1 0.000635 -0.00317256 -0.005715 -0.005832 2.0671e-17 4.76858e-17 2.16e-11 5.26426e-25 6.46435e-36
3219 1 0.000635 -0.0020727 -0.00635 -0.005832 -5.0822e-21 7.15842e-17 2.16e-11 0 1.0343e-35
3306 1 0.000635 -0.000972852 -0.005715 -0.005832 0 4.76866e-17 2.16e-11 0 5.17148e-36
3392 1 0.000635 0.000127 -0.00635 -0.005832 0 7.1585e-17 2.16e-11 0 1.0343e-35
3479 1 0.000635 0.00122685 -0.005715 -0.005832 0 4.76866e-17 2.16e-11 0 5.17148e-36
3565 1 0.000635 0.0023267 -0.00635 -0.005832 0 7.15842e-17 2.16e-11 0 1.0343e-35
3652 1 0.000635 0.00342656 -0.005715 -0.005832 4.13098e-17 4.76858e-17 2.16e-11 0 1.0343e-35
3738 1 0.000635 0.00452641 -0.00635 -0.005832 4.13183e-17 7.15816e-17 2.16e-11 0 2.06859e-35
3825 1 0.000635 0.00562626 -0.005715 -0.005832 -1.44597e-16 4.76841e-17 2.16e-11 0 3.74932e-35
3910 1 0.000635 0.00672611 -0.00635 -0.005832 6.19774e-17 7.15825e-17 2.16e-11 0 2.9736e-35
3996 1 0.000635 0.00782597 -0.005715 -0.005832 -6.77626e-21 4.76849e-17 2.16e-11 0 5.17148e-36
4081 1 0.000635 0.00892582 -0.00635 -0.005832 -5.40616e-09 -9.36374e-09 -7.2897e-07 1.00556e-11 1.0343e-35
4167 1 0.000635 0.0100257 -0.005715 -0.005832 -1.54655e-08 -2.6787e-08 -1.90572e-06 6.91556e-11 6.85221e-35
4252 1 0.000635 0.0111255 -0.00635 -0.005832 -7.09447e-05 1.6842e-05 -9.81751e-06 3.53638e-10 1.72429e-11
4337 1 0.000635 0.0122245 -0.00571518 -0.00580204 1.15546e-10 1.7117e-13 -7.99109e-10 4.21211e-10 2.47765e-11
2533 1 0.000635 -0.0108715 -0.00508 -0.005832 -4.7153e-06 -2.75388e-06 -1.66516e-06 5.42555e-11 1.32561e-13
2704 1 0.000635 -0.00867182 -0.00508 -0.005832 -6.19774e-17 -2.3845e-17 2.16e-11 0 1.42216e-35
2875 1 0.000635 -0.00647211 -0.00508 -0.005832 -1.44605e-16 -2.38442e-17 2.16e-11 0 3.49075e-35
3047 1 0.000635 -0.00427241 -0.00508 -0.005832 -1.03287e-16 -2.38433e-17 2.16e-11 1.57928e-24 2.45645e-35
3220 1 0.000635 -0.0020727 -0.00508 -0.005832 -3.38813e-21 -2.38442e-17 2.16e-11 0 2.58574e-36
3393 1 0.000635 0.000127 -0.00508 -0.005832 0 -2.38442e-17 2.16e-11 0 2.58574e-36
3566 1 0.000635 0.0023267 -0.00508 -0.005832 -3.38813e-21 -2.38459e-17 2.16e-11 0 2.58574e-36
3739 1 0.000635 0.00452641 -0.00508 -0.005832 4.13081e-17 -2.38433e-17 2.16e-11 5.26426e-25 2.84431e-35
3911 1 0.000635 0.00672611 -0.00508 -0.005832 6.19859e-17 -2.38442e-17 2.16e-11 0 1.42216e-35
4082 1 0.000635 0.00892582 -0.00508 -0.005832 -8.47033e-21 -2.3845e-17 2.16e-11 0 2.58574e-36
4253 1 0.000635 0.0111255 -0.00508 -0.005832 -1.66962e-05 9.53977e-06 -4.51512e-06 2.1042e-10 1.69945e-12
2449 1 0.000635 -0.0119714 -0.004445 -0.005832 -0.000102984 -4.85112e-05 2.13473e-05 8.51349e-11 4.08393e-11
2534 1 0.000635 -0.0108715 -0.00381 -0.005832 -4.33705e-08 -2.49939e-08 -2.85445e-06 7.75328e-11 4.65433e-35
2619 1 0.000635 -0.00977167 -0.004445 -0.005832 -1.05459e-09 1.8266e-09 -2.85382e-07 1.53965e-12 6.01185e-35
2705 1 0.000635 -0.00867182 -0.00381 -0.005832 -8.2623e-17 0 2.16e-11 1.05285e-24 2.06859e-35
2790 1 0.000635 -0.00757197 -0.004445 -0.005832 1.44602e-16 -5.96282e-17 2.16e-11 5.26426e-25 3.74932e-35
2876 1 0.000635 -0.00647211 -0.00381 -0.005832 -1.44605e-16 0 2.16e-11 0 3.23218e-35
2961 1 0.000635 -0.00537226 -0.004445 -0.005832 1.44604e-16 -5.9629e-17 2.16e-11 5.26426e-25 3.74932e-35
3048 1 0.000635 -0.00427241 -0.00381 -0.005832 -1.03291e-16 0 2.16e-11 0 1.68073e-35
3134 1 0.000635 -0.00317256 -0.004445 -0.005832 3.09963e-17 -5.36693e-17 2.16e-11 1.57928e-24 8.40366e-36
3221 1 0.000635 -0.0020727 -0.00381 -0.005832 -6.77626e-21 0 2.16e-11 2.10571e-24 0
3307 1 0.000635 -0.000972852 -0.004445 -0.005832 0 -4.77053e-17 2.16e-11 1.05285e-24 5.17148e-36
3394 1 0.000635 0.000127 -0.00381 -0.005832 0 0 2.16e-11 1.05285e-24 0
3480 1 0.000635 0.00122685 -0.004445 -0.005832 0 -4.77053e-17 2.16e-11 1.05285e-24 5.17148e-36
3567 1 0.000635 0.0023267 -0.00381 -0.005832 0 0 2.16e-11 2.10571e-24 0
3653 1 0.000635 0.00342656 -0.004445 -0.005832 3.09811e-17 -5.36701e-17 2.16e-11 1.05285e-24 8.40366e-36
3740 1 0.000635 0.00452641 -0.00381 -0.005832 4.13217e-17 7.70372e-34 2.16e-11 0 1.29287e-35
3826 1 0.000635 0.00562626 -0.004445 -0.005832 -1.44597e-16 -5.9629e-17 2.16e-11 5.26426e-25 3.74932e-35
3912 1 0.000635 0.00672611 -0.00381 -0.005832 8.26298e-17 0 2.16e-11 1.05285e-24 2.06859e-35
3997 1 0.000635 0.00782597 -0.004445 -0.005832 -3.38813e-21 -4.77061e-17 2.16e-11 1.05285e-24 5.17148e-36
4083 1 0.000635 0.00892582 -0.00381 -0.005832 -6.77626e-21 0 2.16e-11 1.05285e-24 0
4168 1 0.000635 0.0100257 -0.004445 -0.005832 2.70177e-09 4.6796e-09 -2.64315e-07 1.32119e-12 6.01185e-35
4254 1 0.000635 0.0111255 -0.00381 -0.005832 1.68244e-08 -7.48876e-09 -1.87329e-06 3.33363e-11 4.65433e-35
4338 1 0.000635 0.0122254 -0.004445 -0.005832 4.50784e-05 7.86968e-06 1.72324e-06 4.10105e-10 2.27602e-11
2450 1 0.000635 -0.0119714 -0.003175 -0.005832 -2.72848e-05 2.44239e-06 9.12482e-06 9.28252e-11 2.41878e-12
2535 1 0.000635 -0.0108715 -0.00254 -0.005832 -5.39776e-08 -3.24461e-09 -2.96523e-06 8.35627e-11 6.33506e-35
2620 1 0.000635 -0.00977167 -0.003175 -0.005832 -1.3427e-16 4.1748e-17 2.16e-11 5.26426e-25 5.81792e-35
2706 1 0.000635 -0.00867182 -0.00254 -0.005832 -7.2301e-17 -5.97417e-18 2.16e-11 0 1.61609e-35
2791 1 0.000635 -0.00757197 -0.003175 -0.005832 1.44602e-16 4.77053e-17 2.16e-11 5.26426e-25 3.55539e-35
2877 1 0.000635 -0.00647211 -0.00254 -0.005832 -1.44605e-16 -1.19365e-17 2.16e-11 0 3.23218e-35
2962 1 0.000635 -0.00537226 -0.003175 -0.005832 1.44604e-16 4.7707e-17 2.16e-11 0 3.55539e-35
3049 1 0.000635 -0.00427241 -0.00254 -0.005832 -1.03284e-16 -1.19373e-17 2.16e-11 5.26426e-25 1.93931e-35
3135 1 0.000635 -0.00317256 -0.003175 -0.005832 3.09963e-17 4.17472e-17 2.16e-11 1.05285e-24 6.46435e-36
3222 1 0.000635 -0.0020727 -0.00254 -0.005832 0 -1.43996e-20 2.16e-11 0 0
3308 1 0.000635 -0.000972852 -0.003175 -0.005832 0 3.57823e-17 2.16e-11 1.05285e-24 3.23218e-36
3395 1 0.000635 0.000127 -0.00254 -0.005832 0 -1.35525e-20 2.16e-11 0 0
3481 1 0.000635 0.00122685 -0.003175 -0.005832 0 3.57823e-17 2.16e-11 1.05285e-24 3.23218e-36
3568 1 0.000635 0.0023267 -0.00254 -0.005832 -6.77626e-21 -1.35525e-20 2.16e-11 0 0
3654 1 0.000635 0.00342656 -0.003175 -0.005832 3.09777e-17 4.17463e-17 2.16e-11 1.05285e-24 6.46435e-36
3741 1 0.000635 0.00452641 -0.00254 -0.005832 4.13115e-17 -1.19382e-17 2.16e-11 5.26426e-25 1.93931e-35
3827 1 0.000635 0.00562626 -0.003175 -0.005832 -1.44595e-16 4.77053e-17 2.16e-11 5.26426e-25 3.55539e-35
3913 1 0.000635 0.00672611 -0.00254 -0.005832 7.23095e-17 -5.97502e-18 2.16e-11 0 1.61609e-35
3998 1 0.000635 0.00782597 -0.003175 -0.005832 0 3.57823e-17 2.16e-11 1.05285e-24 3.23218e-36
4084 1 0.000635 0.00892582 -0.00254 -0.005832 -8.47033e-21 -1.27055e-20 2.16e-11 0 0
4169 1 0.000635 0.0100257 -0.003175 -0.005832 1.3427e-16 4.1748e-17 2.16e-11 5.26426e-25 5.81792e-35
4255 1 0.000635 0.0111255 -0.00254 -0.005832 1.40609e-08 -1.8241e-08 -1.69853e-06 2.7854e-11 6.33506e-35
4339 1 0.000635 0.0122254 -0.003175 -0.005832 4.34162e-05 8.73452e-06 5.53355e-06 3.94772e-11 6.44585e-12
2451 1 0.000635 -0.0119714 -0.001905 -0.005832 -1.79696e-05 2.9705e-06 7.70667e-06 9.33685e-11 1.11434e-12
2536 1 0.000635 -0.0108715 -0.00127 -0.005832 -5.48038e-08 -2.1051e-11 -2.95741e-06 8.31254e-11 6.33506e-35
2621 1 0.000635 -0.00977167 -0.001905 -0.005832 -1.44592e-16 -1.19229e-17 2.16e-11 5.26426e-25 6.39971e-35
2707 1 0.000635 -0.00867182 -0.00127 -0.005832 -7.2301e-17 5.96909e-18 2.16e-11 5.26426e-25 1.61609e-35
2792 1 0.000635 -0.00757197 -0.001905 -0.005832 1.44605e-16 -1.19229e-17 2.16e-11 0 3.29682e-35
2878 1 0.000635 -0.00647211 -0.00127 -0.005832 -1.44605e-16 1.19331e-17 2.16e-11 0 3.23218e-35
2963 1 0.000635 -0.00537226 -0.001905 -0.005832 1.44602e-16 -1.19246e-17 2.16e-11 0 3.29682e-35
3050 1 0.000635 -0.00427241 -0.00127 -0.005832 -1.13613e-16 5.96993e-18 2.16e-11 0 2.13324e-35
3136 1 0.000635 -0.00317256 -0.001905 -0.005832 4.13081e-17 -1.19229e-17 2.16e-11 0 5.81792e-36
3223 1 0.000635 -0.0020727 -0.00127 -0.005832 0 7.6233e-21 2.16e-11 0 0
3309 1 0.000635 -0.000972852 -0.001905 -0.005832 0 -1.19229e-17 2.16e-11 0 6.46435e-37
3396 1 0.000635 0.000127 -0.00127 -0.005832 0 6.77626e-21 2.16e-11 0 0
3482 1 0.000635 0.00122685 -0.001905 -0.005832 0 -1.19229e-17 2.16e-11 0 6.46435e-37
3569 1 0.000635 0.0023267 -0.00127 -0.005832 -6.77626e-21 6.77626e-21 2.16e-11 0 0
3655 1 0.000635 0.00342656 -0.001905 -0.005832 2.06608e-17 -1.19229e-17 2.16e-11 0 1.93931e-36
3742 1 0.000635 0.00452641 -0.00127 -0.005832 4.13149e-17 1.19331e-17 2.16e-11 5.26426e-25 1.93931e-35
3828 1 0.000635 0.00562626 -0.001905 -0.005832 -1.44599e-16 -1.19229e-17 2.16e-11 0 3.29682e-35
3914 1 0.000635 0.00672611 -0.00127 -0.005832 7.23078e-17 5.96909e-18 2.16e-11 5.26426e-25 1.61609e-35
3999 1 0.000635 0.00782597 -0.001905 -0.005832 -6.77626e-21 -1.19229e-17 2.16e-11 5.26426e-25 6.46435e-37
4085 1 0.000635 0.00892582 -0.00127 -0.005832 -6.77626e-21 6.77626e-21 2.16e-11 0 0
4170 1 0.000635 0.0100257 -0.001905 -0.005832 1.44599e-16 -1.19229e-17 2.16e-11 0 6.39971e-35
4256 1 0.000635 0.0111255 -0.00127 -0.005832 1.98422e-08 -8.43754e-09 -1.87108e-06 3.32566e-11 6.33506e-35
4340 1 0.000635 0.0122254 -0.001905 -0.005832 2.1011e-05 6.49019e-07 5.02841e-06 3.78294e-11 1.36722e-12
2452 1 0.000635 -0.0119714 -0.000635 -0.005832 -1.71424e-05 1.01767e-06 7.44661e-06 9.35568e-11 9.49917e-13
2622 1 0.000635 -0.00977167 -0.000635 -0.005832 -1.44599e-16 -8.47033e-21 2.16e-11 0 6.33506e-35
2793 1 0.000635 -0.00757197 -0.000635 -0.005832 1.44604e-16 -1.19339e-17 2.16e-11 5.26426e-25 3.23218e-35
2964 1 0.000635 -0.00537226 -0.000635 -0.005832 1.44604e-16 -1.19365e-17 2.16e-11 0 3.23218e-35
3137 1 0.000635 -0.00317256 -0.000635 -0.005832 4.13183e-17 -8.47033e-21 2.16e-11 0 5.17148e-36
3310 1 0.000635 -0.000972852 -0.000635 -0.005832 0 -8.47033e-21 2.16e-11 0 0
3483 1 0.000635 0.00122685 -0.000635 -0.005832 0 -8.47033e-21 2.16e-11 0 0
3656 1 0.000635 0.00342656 -0.000635 -0.005832 3.09811e-17 -5.97078e-18 2.16e-11 5.26426e-25 3.23218e-36
3829 1 0.000635 0.00562626 -0.000635 -0.005832 -1.44597e-16 -1.19339e-17 2.16e-11 5.26426e-25 3.23218e-35
4000 1 0.000635 0.00782597 -0.000635 -0.005832 0 -8.47033e-21 2.16e-11 0 0
4171 1 0.000635 0.0100257 -0.000635 -0.005832 1.44599e-16 -8.47033e-21 2.16e-11 0 6.33506e-35
4341 1 0.000635 0.0122254 -0.000635 -0.005832 8.20617e-06 2.98957e-07 3.97998e-06 4.19886e-11 2.12795e-13
2453 1 0.000635 -0.0119714 0.000635 -0.005832 -1.71424e-05 -1.01767e-06 7.44661e-06 9.35568e-11 9.49917e-13
2537 1 0.000635 -0.0108715 0 -0.005832 -5.461e-08 7.22951e-17 -2.94716e-06 8.25433e-11 6.33506e-35
2623 1 0.000635 -0.00977167 0.000635 -0.005832 -1.44599e-16 -3.38813e-21 2.16e-11 0 6.33506e-35
2708 1 0.000635 -0.00867182 0 -0.005832 -8.26247e-17 5.92923e-21 2.16e-11 0 2.06859e-35
2794 1 0.000635 -0.00757197 0.000635 -0.005832 1.44602e-16 -3.38813e-21 2.16e-11 0 3.23218e-35
2879 1 0.000635 -0.00647211 0 -0.005832 -1.44605e-16 5.0822e-21 2.16e-11 0 3.23218e-35
2965 1 0.000635 -0.00537226 0.000635 -0.005832 1.44602e-16 -3.38813e-21 2.16e-11 0 3.23218e-35
3051 1 0.000635 -0.00427241 0 -0.005832 -1.03282e-16 5.92923e-21 2.16e-11 0 1.68073e-35
3138 1 0.000635 -0.00317256 0.000635 -0.005832 4.13149e-17 -3.38813e-21 2.16e-11 0 5.17148e-36
3224 1 0.000635 -0.0020727 0 -0.005832 0 6.77626e-21 2.16e-11 0 0
3311 1 0.000635 -0.000972852 0.000635 -0.005832 0 -3.38813e-21 2.16e-11 0 0
3397 1 0.000635 0.000127 0 -0.005832 0 6.77626e-21 2.16e-11 0 0
3484 1 0.000635 0.00122685 0.000635 -0.005832 0 -3.38813e-21 2.16e-11 0 0
3570 1 0.000635 0.0023267 0 -0.005832 -3.38813e-21 5.0822e-21 2.16e-11 5.26426e-25 0
3657 1 0.000635 0.00342656 0.000635 -0.005832 2.06574e-17 -3.38813e-21 2.16e-11 0 1.29287e-36
3743 1 0.000635 0.00452641 0 -0.005832 4.13132e-17 5.92923e-21 2.16e-11 0 1.29287e-35
3830 1 0.000635 0.00562626 0.000635 -0.005832 -1.44595e-16 -3.38813e-21 2.16e-11 0 3.23218e-35
3915 1 0.000635 0.00672611 0 -0.005832 8.26315e-17 5.92923e-21 2.16e-11 0 2.06859e-35
4001 1 0.000635 0.00782597 0.000635 -0.005832 0 -3.38813e-21 2.16e-11 0 0
4086 1 0.000635 0.00892582 0 -0.005832 -6.77626e-21 6.77626e-21 2.16e-11 0 0
4172 1 0.000635 0.0100257 0.000635 -0.005832 1.44599e-16 -3.38813e-21 2.16e-11 0 6.33506e-35
4257 1 0.000635 0.0111255 0 -0.005832 2.22733e-08 3.78768e-17 -1.93728e-06 3.55482e-11 6.33506e-35
4342 1 0.000635 0.0122254 0.000635 -0.005832 8.20617e-06 -2.98957e-07 3.97998e-06 4.19886e-11 2.12795e-13
2454 1 0.000635 -0.0119714 0.001905 -0.005832 -1.79696e-05 -2.9705e-06 7.70667e-06 9.33685e-11 1.11434e-12
2538 1 0.000635 -0.0108715 0.00127 -0.005832 -5.48038e-08 2.1051e-11 -2.95741e-06 8.31254e-11 6.33506e-35
2624 1 0.000635 -0.00977167 0.001905 -0.005832 -1.44595e-16 1.19221e-17 2.16e-11 0 6.39971e-35
2709 1 0.000635 -0.00867182 0.00127 -0.005832 -8.26264e-17 0 2.16e-11 0 2.06859e-35
2795 1 0.000635 -0.00757197 0.001905 -0.005832 1.44604e-16 1.19221e-17 2.16e-11 0 3.29682e-35
2880 1 0.000635 -0.00647211 0.00127 -0.005832 -1.44605e-16 0 2.16e-11 0 3.23218e-35
2966 1 0.000635 -0.00537226 0.001905 -0.005832 1.44604e-16 1.19238e-17 2.16e-11 0 3.29682e-35
3052 1 0.000635 -0.00427241 0.00127 -0.005832 -1.0328e-16 0 2.16e-11 0 1.68073e-35
3139 1 0.000635 -0.00317256 0.001905 -0.005832 4.13115e-17 1.19229e-17 2.16e-11 0 5.81792e-36
3225 1 0.000635 -0.0020727 0.00127 -0.005832 0 0 2.16e-11 0 0
3312 1 0.000635 -0.000972852 0.001905 -0.005832 0 1.19212e-17 2.16e-11 0 6.46435e-37
3398 1 0.000635 0.000127 0.00127 -0.005832 0 0 2.16e-11 0 0
3485 1 0.000635 0.00122685 0.001905 -0.005832 0 1.19212e-17 2.16e-11 0 6.46435e-37
3571 1 0.000635 0.0023267 0.00127 -0.005832 -6.77626e-21 0 2.16e-11 0 0
3658 1 0.000635 0.00342656 0.001905 -0.005832 2.06591e-17 1.19221e-17 2.16e-11 0 1.93931e-36
3744 1 0.000635 0.00452641 0.00127 -0.005832 4.13115e-17 0 2.16e-11 0 1.29287e-35
3831 1 0.000635 0.00562626 0.001905 -0.005832 -1.44597e-16 1.19221e-17 2.16e-11 0 3.29682e-35
3916 1 0.000635 0.00672611 0.00127 -0.005832 8.26331e-17 0 2.16e-11 0 2.06859e-35
4002 1 0.000635 0.00782597 0.001905 -0.005832 -3.38813e-21 1.19221e-17 2.16e-11 0 6.46435e-37
4087 1 0.000635 0.00892582 0.00127 -0.005832 -6.77626e-21 0 2.16e-11 0 0
4173 1 0.000635 0.0100257 0.001905 -0.005832 1.44599e-16 1.19212e-17 2.16e-11 0 6.39971e-35
4258 1 0.000635 0.0111255 0.00127 -0.005832 1.98422e-08 8.43754e-09 -1.87108e-06 3.32566e-11 6.33506e-35
4343 1 0.000635 0.0122254 0.001905 -0.005832 2.1011e-05 -6.49019e-07 5.02841e-06 3.78294e-11 1.36722e-12
2455 1 0.000635 -0.0119714 0.003175 -0.005832 -2.72848e-05 -2.44239e-06 9.12482e-06 9.28252e-11 2.41878e-12
2539 1 0.000635 -0.0108715 0.00254 -0.005832 -5.39776e-08 3.24461e-09 -2.96523e-06 8.35627e-11 6.33506e-35
2625 1 0.000635 -0.00977167 0.003175 -0.005832 -1.3427e-16 -4.1748e-17 2.16e-11 5.26426e-25 5.81792e-35
2710 1 0.000635 -0.00867182 0.00254 -0.005832 -7.2301e-17 5.97417e-18 2.16e-11 0 1.61609e-35
2796 1 0.000635 -0.00757197 0.003175 -0.005832 1.44602e-16 -4.77053e-17 2.16e-11 5.26426e-25 3.55539e-35
2881 1 0.000635 -0.00647211 0.00254 -0.005832 -1.44605e-16 1.19365e-17 2.16e-11 0 3.23218e-35
2967 1 0.000635 -0.00537226 0.003175 -0.005832 1.44604e-16 -4.7707e-17 2.16e-11 0 3.55539e-35
3053 1 0.000635 -0.00427241 0.00254 -0.005832 -1.03284e-16 1.19373e-17 2.16e-11 5.26426e-25 1.93931e-35
3140 1 0.000635 -0.00317256 0.003175 -0.005832 3.09963e-17 -4.17472e-17 2.16e-11 1.05285e-24 6.46435e-36
3226 1 0.000635 -0.0020727 0.00254 -0.005832 0 1.43996e-20 2.16e-11 0 0
3313 1 0.000635 -0.000972852 0.003175 -0.005832 0 -3.57823e-17 2.16e-11 1.05285e-24 3.23218e-36
3399 1 0.000635 0.000127 0.00254 -0.005832 0 1.35525e-20 2.16e-11 0 0
3486 1 0.000635 0.00122685 0.003175 -0.005832 0 -3.57823e-17 2.16e-11 1.05285e-24 3.23218e-36
3572 1 0.000635 0.0023267 0.00254 -0.005832 -6.77626e-21 1.35525e-20 2.16e-11 0 0
3659 1 0.000635 0.00342656 0.003175 -0.005832 3.09777e-17 -4.17463e-17 2.16e-11 1.05285e-24 6.46435e-36
3745 1 0.000635 0.00452641 0.00254 -0.005832 4.13115e-17 1.19382e-17 2.16e-11 5.26426e-25 1.93931e-35
3832 1 0.000635 0.00562626 0.003175 -0.005832 -1.44595e-16 -4.77053e-17 2.16e-11 5.26426e-25 3.55539e-35
3917 1 0.000635 0.00672611 0.00254 -0.005832 7.23095e-17 5.97502e-18 2.16e-11 0 1.61609e-35
4003 1 0.000635 0.00782597 0.003175 -0.005832 0 -3.57823e-17 2.16e-11 1.05285e-24 3.23218e-36
4088 1 0.000635 0.00892582 0.00254 -0.005832 -8.47033e-21 1.27055e-20 2.16e-11 0 0
4174 1 0.000635 0.0100257 0.003175 -0.005832 1.3427e-16 -4.1748e-17 2.16e-11 5.26426e-25 5.81792e-35
4259 1 0.000635 0.0111255 0.00254 -0.005832 1.40609e-08 1.8241e-08 -1.69853e-06 2.7854e-11 6.33506e-35
4344 1 0.000635 0.0122254 0.003175 -0.005832 4.34162e-05 -8.73452e-06 5.53355e-06 3.94772e-11 6.44585e-12
2456 1 0.000635 -0.0119714 0.004445 -0.005832 -0.000102984 4.85112e-05 2.13473e-05 8.51349e-11 4.08393e-11
2540 1 0.000635 -0.0108715 0.00381 -0.005832 -4.33705e-08 2.49939e-08 -2.85445e-06 7.75328e-11 4.65433e-35
2626 1 0.000635 -0.00977167 0.004445 -0.005832 -1.05459e-09 -1.8266e-09 -2.85382e-07 1.53965e-12 6.01185e-35
2711 1 0.000635 -0.00867182 0.00381 -0.005832 -8.2623e-17 0 2.16e-11 1.05285e-24 2.06859e-35
2797 1 0.000635 -0.00757197 0.004445 -0.005832 1.44602e-16 5.96282e-17 2.16e-11 5.26426e-25 3.74932e-35
2882 1 0.000635 -0.00647211 0.00381 -0.005832 -1.44605e-16 0 2.16e-11 0 3.23218e-35
2968 1 0.000635 -0.00537226 0.004445 -0.005832 1.44604e-16 5.9629e-17 2.16e-11 5.26426e-25 3.74932e-35
3054 1 0.000635 -0.00427241 0.00381 -0.005832 -1.03291e-16 0 2.16e-11 0 1.68073e-35
3141 1 0.000635 -0.00317256 0.004445 -0.005832 3.09963e-17 5.36693e-17 2.16e-11 1.57928e-24 8.40366e-36
3227 1 0.000635 -0.0020727 0.00381 -0.005832 -6.77626e-21 0 2.16e-11 2.10571e-24 0
3314 1 0.000635 -0.000972852 0.004445 -0.005832 0 4.77053e-17 2.16e-11 1.05285e-24 5.17148e-36
3400 1 0.000635 0.000127 0.00381 -0.005832 0 0 2.16e-11 1.05285e-24 0
3487 1 0.000635 0.00122685 0.004445 -0.005832 0 4.77053e-17 2.16e-11 1.05285e-24 5.17148e-36
3573 1 0.000635 0.0023267 0.00381 -0.005832 0 0 2.16e-11 2.10571e-24 0
3660 1 0.000635 0.00342656 0.004445 -0.005832 3.09811e-17 5.36701e-17 2.16e-11 1.05285e-24 8.40366e-36
3746 1 0.000635 0.00452641 0.00381 -0.005832 4.13217e-17 0 2.16e-11 0 1.29287e-35
3833 1 0.000635 0.00562626 0.004445 -0.005832 -1.44597e-16 5.9629e-17 2.16e-11 5.26426e-25 3.74932e-35
3918 1 0.000635 0.00672611 0.00381 -0.005832 8.26298e-17 0 2.16e-11 1.05285e-24 2.06859e-35
4004 1 0.000635 0.00782597 0.004445 -0.005832 -3.38813e-21 4.77061e-17 2.16e-11 1.05285e-24 5.17148e-36
4089 1 0.000635 0.00892582 0.00381 -0.005832 -6.77626e-21 0 2.16e-11 1.05285e-24 0
4175 1 0.000635 0.0100257 0.004445 -0.005832 2.70177e-09 -4.6796e-09 -2.64315e-07 1.32119e-12 6.01185e-35
4260 1 0.000635 0.0111255 0.00381 -0.005832 1.68244e-08 7.48876e-09 -1.87329e-06 3.33363e-11 4.65433e-35
4345 1 0.000635 0.0122254 0.004445 -0.005832 4.50784e-05 -7.86968e-06 1.72324e-06 4.10105e-10 2.27602e-11
2541 1 0.000635 -0.0108715 0.00508 -0.005832 -4.7153e-06 2.75388e-06 -1.66516e-06 5.42555e-11 1.32561e-13
2712 1 0.000635 -0.00867182 0.00508 -0.005832 -6.19774e-17 2.3845e-17 2.16e-11 0 1.42216e-35
2883 1 0.000635 -0.00647211 0.00508 -0.005832 -1.44605e-16 2.38442e-17 2.16e-11 0 3.49075e-35
3055 1 0.000635 -0.00427241 0.00508 -0.005832 -1.03287e-16 2.38433e-17 2.16e-11 1.57928e-24 2.45645e-35
3228 1 0.000635 -0.0020727 0.00508 -0.005832 -3.38813e-21 2.38442e-17 2.16e-11 0 2.58574e-36
3401 1 0.000635 0.000127 0.00508 -0.005832 0 2.38442e-17 2.16e-11 0 2.58574e-36
3574 1 0.000635 0.0023267 0.00508 -0.005832 -3.38813e-21 2.38459e-17 2.16e-11 0 2.58574e-36
3747 1 0.000635 0.00452641 0.00508 -0.005832 4.13081e-17 2.38433e-17 2.16e-11 5.26426e-25 2.84431e-35
3919 1 0.000635 0.00672611 0.00508 -0.005832 6.19859e-17 2.38442e-17 2.16e-11 0 1.42216e-35
4090 1 0.000635 0.00892582 0.00508 -0.005832 -8.47033e-21 2.3845e-17 2.16e-11 0 2.58574e-36
4261 1 0.000635 0.0111255 0.00508 -0.005832 -1.66962e-05 -9.53977e-06 -4.51512e-06 2.1042e-10 1.69945e-12
2457 1 0.000635 -0.011971 0.00571505 -0.00579964 -1.95836e-10 4.67733e-11 -2.42246e-09 4.60015e-11 1.30172e-11
2542 1 0.000635 -0.0108715 0.00635 -0.005832 -2.72139e-05 2.06706e-05 1.30845e-06 3.17887e-11 4.04587e-12
2627 1 0.000635 -0.00977167 0.005715 -0.005832 -3.89272e-10 -6.74239e-10 -4.78869e-07 4.3359e-12 6.85221e-35
2713 1 0.000635 -0.00867182 0.00635 -0.005832 -1.67149e-10 -2.89511e-10 -1.56388e-07 4.62333e-13 2.9736e-35
2798 1 0.000635 -0.00757197 0.005715 -0.005832 1.44602e-16 -4.76832e-17 2.16e-11 0 3.74932e-35
2884 1 0.000635 -0.00647211 0.00635 -0.005832 -1.44609e-16 -7.15816e-17 2.16e-11 0 4.0079e-35
2969 1 0.000635 -0.00537226 0.005715 -0.005832 1.44604e-16 -4.76841e-17 2.16e-11 5.26426e-25 3.74932e-35
3056 1 0.000635 -0.00427241 0.00635 -0.005832 -1.13621e-16 -7.75431e-17 2.16e-11 0 2.90896e-35
3142 1 0.000635 -0.00317256 0.005715 -0.005832 2.0671e-17 -4.76858e-17 2.16e-11 5.26426e-25 6.46435e-36
3229 1 0.000635 -0.0020727 0.00635 -0.005832 -5.0822e-21 -7.15842e-17 2.16e-11 0 1.0343e-35
3315 1 0.000635 -0.000972852 0.005715 -0.005832 0 -4.76866e-17 2.16e-11 0 5.17148e-36
3402 1 0.000635 0.000127 0.00635 -0.005832 0 -7.1585e-17 2.16e-11 0 1.0343e-35
3488 1 0.000635 0.00122685 0.005715 -0.005832 0 -4.76866e-17 2.16e-11 0 5.17148e-36
3575 1 0.000635 0.0023267 0.00635 -0.005832 0 -7.15842e-17 2.16e-11 0 1.0343e-35