ITEM: TIMESTEP
1380000
ITEM: NUMBER OF ATOMS
6793
ITEM: BOX BOUNDS ff ff ff
-8.9999999999999997e-02 8.9999999999999997e-02
-8.9999999999999997e-02 8.9999999999999997e-02
-4.0000000000000001e-02 4.0000000000000001e-02
ITEM: ATOMS id type radius x y z fx fy fz c_bendingE c_stretchingE
3214 1 0.000635 -0.0020727 -0.0127 -0.014904 -0.000101772 1.412e-05 -2.46133e-06 3.51057e-09 8.25158e-11
3387 1 0.000635 0.000127 -0.0127 -0.014904 -4.72911e-05 -6.25619e-05 3.2138e-06 2.86427e-10 1.85894e-11
3560 1 0.000635 0.0023267 -0.0127 -0.014904 7.38849e-05 -0.000254189 0.0001117 4.71976e-10 2.69911e-10
3042 1 0.000635 -0.00427241 -0.01143 -0.014904 -8.14111e-07 6.55324e-05 -1.64599e-05 1.94838e-09 2.09602e-11
3128 1 0.000635 -0.00317256 -0.012065 -0.014904 -4.23211e-05 9.98016e-05 -1.97837e-05 2.46153e-09 8.21086e-11
3215 1 0.000635 -0.0020727 -0.01143 -0.014904 3.3764e-08 -8.34227e-08 -3.5517e-06 1.20164e-10 5.17148e-36
3301 1 0.000635 -0.000972852 -0.012065 -0.014904 4.22822e-08 -2.56948e-05 -2.81386e-06 1.16628e-10 2.9713e-12
3388 1 0.000635 0.000127 -0.01143 -0.014904 9.97124e-09 1.69407e-21 -1.16463e-06 2.57046e-11 5.17148e-36
3474 1 0.000635 0.00122685 -0.012065 -0.014904 -3.22934e-08 -2.6497e-06 -4.70082e-06 3.08944e-10 2.47911e-14
3561 1 0.000635 0.0023267 -0.01143 -0.014904 1.94965e-07 -1.17952e-07 -6.1081e-06 3.93931e-10 5.17148e-36
3647 1 0.000635 0.00342656 -0.012065 -0.014904 5.98408e-05 4.18151e-05 2.4162e-07 3.54086e-10 4.85299e-11
3734 1 0.000635 0.00452641 -0.01143 -0.014904 2.61421e-05 1.83105e-05 3.29125e-06 2.41814e-10 9.24246e-12
2956 1 0.000635 -0.00537226 -0.010795 -0.014904 2.9962e-05 3.9169e-05 -1.39259e-05 1.62827e-09 8.66224e-12
3129 1 0.000635 -0.00317256 -0.010795 -0.014904 -7.79539e-09 -7.02348e-08 -3.48786e-06 1.15846e-10 6.46435e-36
3302 1 0.000635 -0.000972852 -0.010795 -0.014904 4.25607e-09 0 -2.5847e-07 1.26321e-12 5.17148e-36
3475 1 0.000635 0.00122685 -0.010795 -0.014904 9.0135e-09 1.69407e-21 -5.22737e-07 5.16863e-12 5.17148e-36
3648 1 0.000635 0.00342656 -0.010795 -0.014904 1.29166e-07 -7.66017e-08 -4.63234e-06 2.17384e-10 1.0343e-35
3821 1 0.000635 0.00562626 -0.010795 -0.014904 1.38366e-05 1.03951e-05 3.23241e-06 1.69331e-10 2.69866e-12
2786 1 0.000635 -0.00757197 -0.009525 -0.014904 7.42944e-05 3.76989e-06 -1.04661e-05 1.1539e-09 4.1346e-11
2871 1 0.000635 -0.00647211 -0.01016 -0.014904 5.40298e-05 1.92398e-05 -1.1945e-05 1.38292e-09 1.92847e-11
2957 1 0.000635 -0.00537226 -0.009525 -0.014904 -4.69513e-08 -4.86788e-08 -3.35434e-06 1.07161e-10 3.74932e-35
3043 1 0.000635 -0.00427241 -0.01016 -0.014904 -3.10561e-08 -5.8573e-08 -3.42834e-06 1.11938e-10 2.71503e-35
3130 1 0.000635 -0.00317256 -0.009525 -0.014904 2.0671e-17 0 2.16e-11 1.05285e-24 6.46435e-36
3216 1 0.000635 -0.0020727 -0.01016 -0.014904 -6.77626e-21 0 2.16e-11 0 5.17148e-36
3303 1 0.000635 -0.000972852 -0.009525 -0.014904 0 0 2.16e-11 0 5.17148e-36
3389 1 0.000635 0.000127 -0.01016 -0.014904 0 0 2.16e-11 0 5.17148e-36
3476 1 0.000635 0.00122685 -0.009525 -0.014904 0 0 2.16e-11 0 5.17148e-36
3562 1 0.000635 0.0023267 -0.01016 -0.014904 0 0 2.16e-11 0 5.17148e-36
3649 1 0.000635 0.00342656 -0.009525 -0.014904 4.13115e-17 0 2.16e-11 0 1.0343e-35
3735 1 0.000635 0.00452641 -0.01016 -0.014904 7.81721e-08 -5.15659e-08 -3.66132e-06 1.32581e-10 3.10289e-35
3822 1 0.000635 0.00562626 -0.009525 -0.014904 5.70371e-08 -3.1143e-08 -2.97431e-06 8.74196e-11 3.74932e-35
3907 1 0.000635 0.00672611 -0.01016 -0.014904 2.18242e-05 -6.86459e-06 4.73443e-06 1.33817e-10 3.05212e-12
3993 1 0.000635 0.00782597 -0.009525 -0.014904 1.55423e-05 -2.67679e-05 3.12954e-06 3.70987e-10 2.8817e-12
2616 1 0.000635 -0.00977167 -0.008255 -0.014904 -2.72485e-05 -8.9736e-05 1.73081e-05 6.55925e-10 4.57513e-11
2701 1 0.000635 -0.00867182 -0.00889 -0.014904 9.57191e-05 -8.84408e-06 -1.0135e-05 9.10577e-10 7.53482e-11
2787 1 0.000635 -0.00757197 -0.008255 -0.014904 -6.20434e-08 -3.89611e-08 -3.31343e-06 1.04513e-10 4.0079e-35
2872 1 0.000635 -0.00647211 -0.00889 -0.014904 -5.66758e-08 -4.17001e-08 -3.29519e-06 1.0336e-10 3.74932e-35
2958 1 0.000635 -0.00537226 -0.008255 -0.014904 1.44607e-16 -7.15799e-17 2.16e-11 5.26426e-25 4.0079e-35
3044 1 0.000635 -0.00427241 -0.00889 -0.014904 -1.03289e-16 -4.76841e-17 2.16e-11 1.05285e-24 2.71503e-35
3131 1 0.000635 -0.00317256 -0.008255 -0.014904 3.09912e-17 -7.75431e-17 2.16e-11 5.26426e-25 1.87466e-35
3217 1 0.000635 -0.0020727 -0.00889 -0.014904 -3.38813e-21 -4.76866e-17 2.16e-11 0 5.17148e-36
3304 1 0.000635 -0.000972852 -0.008255 -0.014904 0 -7.15833e-17 2.16e-11 0 1.0343e-35
3390 1 0.000635 0.000127 -0.00889 -0.014904 0 -4.76866e-17 2.16e-11 0 5.17148e-36
3477 1 0.000635 0.00122685 -0.008255 -0.014904 0 -7.15833e-17 2.16e-11 0 1.0343e-35
3563 1 0.000635 0.0023267 -0.00889 -0.014904 0 -4.76858e-17 2.16e-11 0 5.17148e-36
3650 1 0.000635 0.00342656 -0.008255 -0.014904 4.13098e-17 -7.15825e-17 2.16e-11 0 1.0343e-35
3736 1 0.000635 0.00452641 -0.00889 -0.014904 4.13115e-17 -4.76841e-17 2.16e-11 0 3.10289e-35
3823 1 0.000635 0.00562626 -0.008255 -0.014904 -1.446e-16 -7.15791e-17 2.16e-11 0 4.0079e-35
3908 1 0.000635 0.00672611 -0.00889 -0.014904 3.16266e-08 -3.79451e-08 -2.59797e-06 6.53915e-11 1.68073e-35
3994 1 0.000635 0.00782597 -0.008255 -0.014904 -2.01721e-08 -9.36277e-08 -3.49966e-06 1.28788e-10 1.0343e-35
4079 1 0.000635 0.00892582 -0.00889 -0.014904 -8.8401e-05 0.000103647 -2.86534e-05 9.50946e-10 6.31778e-11
4165 1 0.000635 0.0100257 -0.008255 -0.014904 0.000331991 6.55252e-05 8.78586e-05 1.35129e-09 6.7733e-10
2617 1 0.000635 -0.00977167 -0.006985 -0.014904 -7.98246e-06 -4.5553e-06 -2.32913e-06 9.24407e-11 3.74426e-13
2702 1 0.000635 -0.00867182 -0.00762 -0.014904 -7.63312e-08 -2.34974e-08 -3.4384e-06 1.12963e-10 2.9736e-35
2788 1 0.000635 -0.00757197 -0.006985 -0.014904 1.44605e-16 -2.38958e-17 2.16e-11 0 4.0079e-35
2873 1 0.000635 -0.00647211 -0.00762 -0.014904 -1.44609e-16 2.38967e-17 2.16e-11 0 4.0079e-35
2959 1 0.000635 -0.00537226 -0.006985 -0.014904 1.44605e-16 -2.38958e-17 2.16e-11 0 4.0079e-35
3045 1 0.000635 -0.00427241 -0.00762 -0.014904 -1.13623e-16 2.98573e-17 2.16e-11 0 2.90896e-35
3132 1 0.000635 -0.00317256 -0.006985 -0.014904 3.09912e-17 -2.98573e-17 2.16e-11 0 1.87466e-35
3218 1 0.000635 -0.0020727 -0.00762 -0.014904 -1.69407e-21 2.38958e-17 2.16e-11 0 1.0343e-35
3305 1 0.000635 -0.000972852 -0.006985 -0.014904 0 -2.38967e-17 2.16e-11 0 1.0343e-35
3391 1 0.000635 0.000127 -0.00762 -0.014904 0 2.38967e-17 2.16e-11 0 1.0343e-35
3478 1 0.000635 0.00122685 -0.006985 -0.014904 0 -2.38967e-17 2.16e-11 0 1.0343e-35
3564 1 0.000635 0.0023267 -0.00762 -0.014904 0 2.38967e-17 2.16e-11 0 1.0343e-35
3651 1 0.000635 0.00342656 -0.006985 -0.014904 4.13081e-17 -2.38967e-17 2.16e-11 0 1.0343e-35
3737 1 0.000635 0.00452641 -0.00762 -0.014904 4.13217e-17 2.38958e-17 2.16e-11 0 2.06859e-35
3824 1 0.000635 0.00562626 -0.006985 -0.014904 -1.44599e-16 -2.3895e-17 2.16e-11 0 4.0079e-35
3909 1 0.000635 0.00672611 -0.00762 -0.014904 6.19757e-17 2.38958e-17 2.16e-11 0 2.9736e-35
3995 1 0.000635 0.00782597 -0.006985 -0.014904 -6.77626e-21 -2.38967e-17 2.16e-11 0 1.0343e-35
4080 1 0.000635 0.00892582 -0.00762 -0.014904 -8.01082e-08 -1.80114e-07 -6.34875e-06 5.73809e-10 1.0343e-35
4166 1 0.000635 0.0100257 -0.006985 -0.014904 -9.67221e-05 5.5283e-05 -2.02697e-05 1.04047e-09 5.80497e-11
2532 1 0.000635 -0.0108715 -0.00635 -0.014904 -6.30853e-05 -7.43047e-05 7.36233e-06 1.27233e-10 3.60102e-11
2618 1 0.000635 -0.00977167 -0.005715 -0.014904 -3.3958e-09 5.88169e-09 -9.5018e-07 1.7094e-11 6.85221e-35
2703 1 0.000635 -0.00867182 -0.00635 -0.014904 -1.61679e-10 2.80036e-10 -3.80949e-07 2.74357e-12 2.9736e-35
2789 1 0.000635 -0.00757197 -0.005715 -0.014904 1.44602e-16 4.76832e-17 2.16e-11 0 3.74932e-35
2874 1 0.000635 -0.00647211 -0.00635 -0.014904 -1.44609e-16 7.15816e-17 2.16e-11 0 4.0079e-35
2960 1 0.000635 -0.00537226 -0.005715 -0.014904 1.44604e-16 4.76841e-17 2.16e-11 5.26426e-25 3.74932e-35
3046 1 0.000635 -0.00427241 -0.00635 -0.014904 -1.13621e-16 7.75431e-17 2.16e-11 0 2.90896e-35
3133 1 0.000635 -0.00317256 -0.005715 -0.014904 2.0671e-17 4.76858e-17 2.16e-11 5.26426e-25 6.46435e-36
3219 1 0.000635 -0.0020727 -0.00635 -0.014904 -5.0822e-21 7.15842e-17 2.16e-11 0 1.0343e-35
3306 1 0.000635 -0.000972852 -0.005715 -0.014904 0 4.76866e-17 2.16e-11 0 5.17148e-36
3392 1 0.000635 0.000127 -0.00635 -0.014904 0 7.1585e-17 2.16e-11 0 1.0343e-35
3479 1 0.000635 0.00122685 -0.005715 -0.014904 0 4.76866e-17 2.16e-11 0 5.17148e-36
3565 1 0.000635 0.0023267 -0.00635 -0.014904 0 7.15842e-17 2.16e-11 0 1.0343e-35
3652 1 0.000635 0.00342656 -0.005715 -0.014904 4.13098e-17 4.76858e-17 2.16e-11 0 1.0343e-35
3738 1 0.000635 0.00452641 -0.00635 -0.014904 4.13183e-17 7.15816e-17 2.16e-11 0 2.06859e-35
3825 1 0.000635 0.00562626 -0.005715 -0.014904 -1.44597e-16 4.76841e-17 2.16e-11 0 3.74932e-35
3910 1 0.000635 0.00672611 -0.00635 -0.014904 6.19774e-17 7.15825e-17 2.16e-11 0 2.9736e-35
3996 1 0.000635 0.00782597 -0.005715 -0.014904 -6.77626e-21 4.76849e-17 2.16e-11 0 5.17148e-36
4081 1 0.000635 0.00892582 -0.00635 -0.014904 -1.59892e-08 -2.76942e-08 -1.34762e-06 3.44655e-11 1.0343e-35
4167 1 0.000635 0.0100257 -0.005715 -0.014904 -4.9792e-08 -8.62422e-08 -3.82718e-06 2.85591e-10 6.85221e-35
4252 1 0.000635 0.0111255 -0.00635 -0.014904 -0.000325857 -2.69037e-05 -7.38371e-05 1.50593e-09 3.47474e-10
2533 1 0.000635 -0.0108715 -0.00508 -0.014904 -1.75148e-05 -1.02555e-05 -3.63908e-06 2.42166e-10 1.82393e-12
2704 1 0.000635 -0.00867182 -0.00508 -0.014904 -6.19774e-17 -2.3845e-17 2.16e-11 0 1.42216e-35
2875 1 0.000635 -0.00647211 -0.00508 -0.014904 -1.44605e-16 -2.38442e-17 2.16e-11 0 3.49075e-35
3047 1 0.000635 -0.00427241 -0.00508 -0.014904 -1.03287e-16 -2.38433e-17 2.16e-11 1.57928e-24 2.45645e-35
3220 1 0.000635 -0.0020727 -0.00508 -0.014904 -3.38813e-21 -2.38442e-17 2.16e-11 0 2.58574e-36
3393 1 0.000635 0.000127 -0.00508 -0.014904 0 -2.38442e-17 2.16e-11 0 2.58574e-36
3566 1 0.000635 0.0023267 -0.00508 -0.014904 -3.38813e-21 -2.38459e-17 2.16e-11 0 2.58574e-36
3739 1 0.000635 0.00452641 -0.00508 -0.014904 4.13081e-17 -2.38433e-17 2.16e-11 5.26426e-25 2.84431e-35
3911 1 0.000635 0.00672611 -0.00508 -0.014904 6.19859e-17 -2.38442e-17 2.16e-11 0 1.42216e-35
4082 1 0.000635 0.00892582 -0.00508 -0.014904 -8.47033e-21 -2.3845e-17 2.16e-11 0 2.58574e-36
4253 1 0.000635 0.0111255 -0.00508 -0.014904 -4.73389e-05 2.70348e-05 -1.16254e-05 1.02706e-09 1.37716e-11
2449 1 0.000635 -0.0119714 -0.004445 -0.014904 -0.000161477 -0.000115524 6.15457e-05 3.77939e-10 1.28108e-10
2534 1 0.000635 -0.0108715 -0.00381 -0.014904 -1.8569e-07 -9.95451e-08 -5.6995e-06 3.14174e-10 4.65433e-35
2619 1 0.000635 -0.00977167 -0.004445 -0.014904 -4.09247e-09 7.08837e-09 -4.05442e-07 3.10907e-12 6.01185e-35
2705 1 0.000635 -0.00867182 -0.00381 -0.014904 -8.2623e-17 0 2.16e-11 1.05285e-24 2.06859e-35
2790 1 0.000635 -0.00757197 -0.004445 -0.014904 1.44602e-16 -5.96282e-17 2.16e-11 5.26426e-25 3.74932e-35
2876 1 0.000635 -0.00647211 -0.00381 -0.014904 -1.44605e-16 0 2.16e-11 0 3.23218e-35
2961 1 0.000635 -0.00537226 -0.004445 -0.014904 1.44604e-16 -5.9629e-17 2.16e-11 5.26426e-25 3.74932e-35
3048 1 0.000635 -0.00427241 -0.00381 -0.014904 -1.03291e-16 0 2.16e-11 0 1.68073e-35
3134 1 0.000635 -0.00317256 -0.004445 -0.014904 3.09963e-17 -5.36693e-17 2.16e-11 1.57928e-24 8.40366e-36
3221 1 0.000635 -0.0020727 -0.00381 -0.014904 -6.77626e-21 0 2.16e-11 2.10571e-24 0
3307 1 0.000635 -0.000972852 -0.004445 -0.014904 0 -4.77053e-17 2.16e-11 1.05285e-24 5.17148e-36
3394 1 0.000635 0.000127 -0.00381 -0.014904 0 0 2.16e-11 1.05285e-24 0
3480 1 0.000635 0.00122685 -0.004445 -0.014904 0 -4.77053e-17 2.16e-11 1.05285e-24 5.17148e-36
3567 1 0.000635 0.0023267 -0.00381 -0.014904 0 0 2.16e-11 2.10571e-24 0
3653 1 0.000635 0.00342656 -0.004445 -0.014904 3.09811e-17 -5.36701e-17 2.16e-11 1.05285e-24 8.40366e-36
3740 1 0.000635 0.00452641 -0.00381 -0.014904 4.13217e-17 7.70372e-34 2.16e-11 0 1.29287e-35
3826 1 0.000635 0.00562626 -0.004445 -0.014904 -1.44597e-16 -5.9629e-17 2.16e-11 5.26426e-25 3.74932e-35
3912 1 0.000635 0.00672611 -0.00381 -0.014904 8.26298e-17 0 2.16e-11 1.05285e-24 2.06859e-35
3997 1 0.000635 0.00782597 -0.004445 -0.014904 -3.38813e-21 -4.77061e-17 2.16e-11 1.05285e-24 5.17148e-36
4083 1 0.000635 0.00892582 -0.00381 -0.014904 -6.77626e-21 0 2.16e-11 1.05285e-24 0
4168 1 0.000635 0.0100257 -0.004445 -0.014904 1.87528e-08 3.24808e-08 -5.44756e-07 5.63843e-12 6.01185e-35
4254 1 0.000635 0.0111255 -0.00381 -0.014904 1.24061e-07 -3.13635e-08 -4.55805e-06 1.99022e-10 4.65433e-35
4338 1 0.000635 0.0122254 -0.004445 -0.014904 0.000140181 -0.000196227 3.99375e-05 2.32546e-09 2.78715e-10
2450 1 0.000635 -0.0119714 -0.003175 -0.014904 3.10126e-05 6.23483e-05 -1.23115e-06 4.22508e-10 3.83572e-11
2535 1 0.000635 -0.0108715 -0.00254 -0.014904 -2.3043e-07 -1.5326e-08 -6.00093e-06 3.48694e-10 6.33506e-35
2620 1 0.000635 -0.00977167 -0.003175 -0.014904 -1.3427e-16 4.1748e-17 2.16e-11 5.26426e-25 5.81792e-35
2706 1 0.000635 -0.00867182 -0.00254 -0.014904 -7.2301e-17 -5.97417e-18 2.16e-11 0 1.61609e-35
2791 1 0.000635 -0.00757197 -0.003175 -0.014904 1.44602e-16 4.77053e-17 2.16e-11 5.26426e-25 3.55539e-35
2877 1 0.000635 -0.00647211 -0.00254 -0.014904 -1.44605e-16 -1.19365e-17 2.16e-11 0 3.23218e-35
2962 1 0.000635 -0.00537226 -0.003175 -0.014904 1.44604e-16 4.7707e-17 2.16e-11 0 3.55539e-35
3049 1 0.000635 -0.00427241 -0.00254 -0.014904 -1.03284e-16 -1.19373e-17 2.16e-11 5.26426e-25 1.93931e-35
3135 1 0.000635 -0.00317256 -0.003175 -0.014904 3.09963e-17 4.17472e-17 2.16e-11 1.05285e-24 6.46435e-36
3222 1 0.000635 -0.0020727 -0.00254 -0.014904 0 -1.43996e-20 2.16e-11 0 0
3308 1 0.000635 -0.000972852 -0.003175 -0.014904 0 3.57823e-17 2.16e-11 1.05285e-24 3.23218e-36
3395 1 0.000635 0.000127 -0.00254 -0.014904 0 -1.35525e-20 2.16e-11 0 0
3481 1 0.000635 0.00122685 -0.003175 -0.014904 0 3.57823e-17 2.16e-11 1.05285e-24 3.23218e-36
3568 1 0.000635 0.0023267 -0.00254 -0.014904 -6.77626e-21 -1.35525e-20 2.16e-11 0 0
3654 1 0.000635 0.00342656 -0.003175 -0.014904 3.09777e-17 4.17463e-17 2.16e-11 1.05285e-24 6.46435e-36
3741 1 0.000635 0.00452641 -0.00254 -0.014904 4.13115e-17 -1.19382e-17 2.16e-11 5.26426e-25 1.93931e-35
3827 1 0.000635 0.00562626 -0.003175 -0.014904 -1.44595e-16 4.77053e-17 2.16e-11 5.26426e-25 3.55539e-35
3913 1 0.000635 0.00672611 -0.00254 -0.014904 7.23095e-17 -5.97502e-18 2.16e-11 0 1.61609e-35
3998 1 0.000635 0.00782597 -0.003175 -0.014904 0 3.57823e-17 2.16e-11 1.05285e-24 3.23218e-36
4084 1 0.000635 0.00892582 -0.00254 -0.014904 -8.47033e-21 -1.27055e-20 2.16e-11 0 0
4169 1 0.000635 0.0100257 -0.003175 -0.014904 1.3427e-16 4.1748e-17 2.16e-11 5.26426e-25 5.81792e-35
4255 1 0.000635 0.0111255 -0.00254 -0.014904 1.21339e-07 -3.21339e-08 -4.44603e-06 1.89491e-10 6.33506e-35
4339 1 0.000635 0.0122254 -0.003175 -0.014904 5.00218e-05 5.6073e-06 1.80293e-05 2.4503e-10 8.41965e-12
2451 1 0.000635 -0.0119714 -0.001905 -0.014904 2.84297e-06 3.02098e-05 8.71933e-06 4.08155e-10 8.28859e-12
2536 1 0.000635 -0.0108715 -0.00127 -0.014904 -2.29358e-07 -1.1917e-08 -5.97256e-06 3.45339e-10 6.33506e-35
2621 1 0.000635 -0.00977167 -0.001905 -0.014904 -1.44592e-16 -1.19229e-17 2.16e-11 5.26426e-25 6.39971e-35
2707 1 0.000635 -0.00867182 -0.00127 -0.014904 -7.2301e-17 5.96909e-18 2.16e-11 5.26426e-25 1.61609e-35
2792 1 0.000635 -0.00757197 -0.001905 -0.014904 1.44605e-16 -1.19229e-17 2.16e-11 0 3.29682e-35
2878 1 0.000635 -0.00647211 -0.00127 -0.014904 -1.44605e-16 1.19331e-17 2.16e-11 0 3.23218e-35
2963 1 0.000635 -0.00537226 -0.001905 -0.014904 1.44602e-16 -1.19246e-17 2.16e-11 0 3.29682e-35
3050 1 0.000635 -0.00427241 -0.00127 -0.014904 -1.13613e-16 5.96993e-18 2.16e-11 0 2.13324e-35
3136 1 0.000635 -0.00317256 -0.001905 -0.014904 4.13081e-17 -1.19229e-17 2.16e-11 0 5.81792e-36
3223 1 0.000635 -0.0020727 -0.00127 -0.014904 0 7.6233e-21 2.16e-11 0 0
3309 1 0.000635 -0.000972852 -0.001905 -0.014904 0 -1.19229e-17 2.16e-11 0 6.46435e-37
3396 1 0.000635 0.000127 -0.00127 -0.014904 0 6.77626e-21 2.16e-11 0 0
3482 1 0.000635 0.00122685 -0.001905 -0.014904 0 -1.19229e-17 2.16e-11 0 6.46435e-37
3569 1 0.000635 0.0023267 -0.00127 -0.014904 -6.77626e-21 6.77626e-21 2.16e-11 0 0
3655 1 0.000635 0.00342656 -0.001905 -0.014904 2.06608e-17 -1.19229e-17 2.16e-11 0 1.93931e-36
3742 1 0.000635 0.00452641 -0.00127 -0.014904 4.13149e-17 1.19331e-17 2.16e-11 5.26426e-25 1.93931e-35
3828 1 0.000635 0.00562626 -0.001905 -0.014904 -1.44599e-16 -1.19229e-17 2.16e-11 0 3.29682e-35
3914 1 0.000635 0.00672611 -0.00127 -0.014904 7.23078e-17 5.96909e-18 2.16e-11 5.26426e-25 1.61609e-35
3999 1 0.000635 0.00782597 -0.001905 -0.014904 -6.77626e-21 -1.19229e-17 2.16e-11 5.26426e-25 6.46435e-37
4085 1 0.000635 0.00892582 -0.00127 -0.014904 -6.77626e-21 6.77626e-21 2.16e-11 0 0
4170 1 0.000635 0.0100257 -0.001905 -0.014904 1.44599e-16 -1.19229e-17 2.16e-11 0 6.39971e-35
4256 1 0.000635 0.0111255 -0.00127 -0.014904 1.34847e-07 -3.44915e-09 -4.59906e-06 2.02715e-10 6.33506e-35
4340 1 0.000635 0.0122254 -0.001905 -0.014904 1.07317e-05 5.06174e-06 1.00809e-05 2.38876e-10 6.48585e-13
2452 1 0.000635 -0.0119714 -0.000635 -0.014904 -5.52974e-06 8.88494e-06 1.17713e-05 3.95865e-10 8.63955e-13
2622 1 0.000635 -0.00977167 -0.000635 -0.014904 -1.44599e-16 -8.47033e-21 2.16e-11 0 6.33506e-35
2793 1 0.000635 -0.00757197 -0.000635 -0.014904 1.44604e-16 -1.19339e-17 2.16e-11 5.26426e-25 3.23218e-35
2964 1 0.000635 -0.00537226 -0.000635 -0.014904 1.44604e-16 -1.19365e-17 2.16e-11 0 3.23218e-35
3137 1 0.000635 -0.00317256 -0.000635 -0.014904 4.13183e-17 -8.47033e-21 2.16e-11 0 5.17148e-36
3310 1 0.000635 -0.000972852 -0.000635 -0.014904 0 -8.47033e-21 2.16e-11 0 0
3483 1 0.000635 0.00122685 -0.000635 -0.014904 0 -8.47033e-21 2.16e-11 0 0
3656 1 0.000635 0.00342656 -0.000635 -0.014904 3.09811e-17 -5.97078e-18 2.16e-11 5.26426e-25 3.23218e-36
3829 1 0.000635 0.00562626 -0.000635 -0.014904 -1.44597e-16 -1.19339e-17 2.16e-11 5.26426e-25 3.23218e-35
4000 1 0.000635 0.00782597 -0.000635 -0.014904 0 -8.47033e-21 2.16e-11 0 0
4171 1 0.000635 0.0100257 -0.000635 -0.014904 1.44599e-16 -8.47033e-21 2.16e-11 0 6.33506e-35
4341 1 0.000635 0.0122254 -0.000635 -0.014904 2.10361e-06 2.34341e-06 7.57471e-06 2.49384e-10 7.25061e-14
2453 1 0.000635 -0.0119714 0.000635 -0.014904 -5.52974e-06 -8.88494e-06 1.17713e-05 3.95865e-10 8.63955e-13
2537 1 0.000635 -0.0108715 0 -0.014904 -2.29972e-07 -8.81761e-19 -5.97649e-06 3.45803e-10 6.33506e-35
2623 1 0.000635 -0.00977167 0.000635 -0.014904 -1.44599e-16 -3.38813e-21 2.16e-11 0 6.33506e-35
2708 1 0.000635 -0.00867182 0 -0.014904 -8.26247e-17 5.92923e-21 2.16e-11 0 2.06859e-35
2794 1 0.000635 -0.00757197 0.000635 -0.014904 1.44602e-16 -3.38813e-21 2.16e-11 0 3.23218e-35
2879 1 0.000635 -0.00647211 0 -0.014904 -1.44605e-16 5.0822e-21 2.16e-11 0 3.23218e-35
2965 1 0.000635 -0.00537226 0.000635 -0.014904 1.44602e-16 -3.38813e-21 2.16e-11 0 3.23218e-35
3051 1 0.000635 -0.00427241 0 -0.014904 -1.03282e-16 5.92923e-21 2.16e-11 0 1.68073e-35
3138 1 0.000635 -0.00317256 0.000635 -0.014904 4.13149e-17 -3.38813e-21 2.16e-11 0 5.17148e-36
3224 1 0.000635 -0.0020727 0 -0.014904 0 6.77626e-21 2.16e-11 0 0
3311 1 0.000635 -0.000972852 0.000635 -0.014904 0 -3.38813e-21 2.16e-11 0 0
3397 1 0.000635 0.000127 0 -0.014904 0 6.77626e-21 2.16e-11 0 0
3484 1 0.000635 0.00122685 0.000635 -0.014904 0 -3.38813e-21 2.16e-11 0 0
3570 1 0.000635 0.0023267 0 -0.014904 -3.38813e-21 5.0822e-21 2.16e-11 5.26426e-25 0
3657 1 0.000635 0.00342656 0.000635 -0.014904 2.06574e-17 -3.38813e-21 2.16e-11 0 1.29287e-36
3743 1 0.000635 0.00452641 0 -0.014904 4.13132e-17 5.92923e-21 2.16e-11 0 1.29287e-35
3830 1 0.000635 0.00562626 0.000635 -0.014904 -1.44595e-16 -3.38813e-21 2.16e-11 0 3.23218e-35
3915 1 0.000635 0.00672611 0 -0.014904 8.26315e-17 5.92923e-21 2.16e-11 0 2.06859e-35
4001 1 0.000635 0.00782597 0.000635 -0.014904 0 -3.38813e-21 2.16e-11 0 0
4086 1 0.000635 0.00892582 0 -0.014904 -6.77626e-21 6.77626e-21 2.16e-11 0 0
4172 1 0.000635 0.0100257 0.000635 -0.014904 1.44599e-16 -3.38813e-21 2.16e-11 0 6.33506e-35
4257 1 0.000635 0.0111255 0 -0.014904 1.36414e-07 7.55469e-18 -4.60624e-06 2.03365e-10 6.33506e-35
4342 1 0.000635 0.0122254 0.000635 -0.014904 2.10361e-06 -2.34341e-06 7.57471e-06 2.49384e-10 7.25061e-14
2454 1 0.000635 -0.0119714 0.001905 -0.014904 2.84297e-06 -3.02098e-05 8.71933e-06 4.08155e-10 8.28859e-12
2538 1 0.000635 -0.0108715 0.00127 -0.014904 -2.29358e-07 1.1917e-08 -5.97256e-06 3.45339e-10 6.33506e-35
2624 1 0.000635 -0.00977167 0.001905 -0.014904 -1.44595e-16 1.19221e-17 2.16e-11 0 6.39971e-35
2709 1 0.000635 -0.00867182 0.00127 -0.014904 -8.26264e-17 0 2.16e-11 0 2.06859e-35
2795 1 0.000635 -0.00757197 0.001905 -0.014904 1.44604e-16 1.19221e-17 2.16e-11 0 3.29682e-35
2880 1 0.000635 -0.00647211 0.00127 -0.014904 -1.44605e-16 0 2.16e-11 0 3.23218e-35
2966 1 0.000635 -0.00537226 0.001905 -0.014904 1.44604e-16 1.19238e-17 2.16e-11 0 3.29682e-35
3052 1 0.000635 -0.00427241 0.00127 -0.014904 -1.0328e-16 0 2.16e-11 0 1.68073e-35
3139 1 0.000635 -0.00317256 0.001905 -0.014904 4.13115e-17 1.19229e-17 2.16e-11 0 5.81792e-36
3225 1 0.000635 -0.0020727 0.00127 -0.014904 0 0 2.16e-11 0 0
3312 1 0.000635 -0.000972852 0.001905 -0.014904 0 1.19212e-17 2.16e-11 0 6.46435e-37
3398 1 0.000635 0.000127 0.00127 -0.014904 0 0 2.16e-11 0 0
3485 1 0.000635 0.00122685 0.001905 -0.014904 0 1.19212e-17 2.16e-11 0 6.46435e-37
3571 1 0.000635 0.0023267 0.00127 -0.014904 -6.77626e-21 0 2.16e-11 0 0
3658 1 0.000635 0.00342656 0.001905 -0.014904 2.06591e-17 1.19221e-17 2.16e-11 0 1.93931e-36
3744 1 0.000635 0.00452641 0.00127 -0.014904 4.13115e-17 0 2.16e-11 0 1.29287e-35
3831 1 0.000635 0.00562626 0.001905 -0.014904 -1.44597e-16 1.19221e-17 2.16e-11 0 3.29682e-35
3916 1 0.000635 0.00672611 0.00127 -0.014904 8.26331e-17 0 2.16e-11 0 2.06859e-35
4002 1 0.000635 0.00782597 0.001905 -0.014904 -3.38813e-21 1.19221e-17 2.16e-11 0 6.46435e-37
4087 1 0.000635 0.00892582 0.00127 -0.014904 -6.77626e-21 0 2.16e-11 0 0
4173 1 0.000635 0.0100257 0.001905 -0.014904 1.44599e-16 1.19212e-17 2.16e-11 0 6.39971e-35
4258 1 0.000635 0.0111255 0.00127 -0.014904 1.34847e-07 3.44915e-09 -4.59906e-06 2.02715e-10 6.33506e-35
4343 1 0.000635 0.0122254 0.001905 -0.014904 1.07317e-05 -5.06174e-06 1.00809e-05 2.38876e-10 6.48585e-13
2455 1 0.000635 -0.0119714 0.003175 -0.014904 3.10126e-05 -6.23483e-05 -1.23115e-06 4.22508e-10 3.83572e-11
2539 1 0.000635 -0.0108715 0.00254 -0.014904 -2.3043e-07 1.5326e-08 -6.00093e-06 3.48694e-10 6.33506e-35
2625 1 0.000635 -0.00977167 0.003175 -0.014904 -1.3427e-16 -4.1748e-17 2.16e-11 5.26426e-25 5.81792e-35
2710 1 0.000635 -0.00867182 0.00254 -0.014904 -7.2301e-17 5.97417e-18 2.16e-11 0 1.61609e-35
2796 1 0.000635 -0.00757197 0.003175 -0.014904 1.44602e-16 -4.77053e-17 2.16e-11 5.26426e-25 3.55539e-35
2881 1 0.000635 -0.00647211 0.00254 -0.014904 -1.44605e-16 1.19365e-17 2.16e-11 0 3.23218e-35
2967 1 0.000635 -0.00537226 0.003175 -0.014904 1.44604e-16 -4.7707e-17 2.16e-11 0 3.55539e-35
3053 1 0.000635 -0.00427241 0.00254 -0.014904 -1.03284e-16 1.19373e-17 2.16e-11 5.26426e-25 1.93931e-35
3140 1 0.000635 -0.00317256 0.003175 -0.014904 3.09963e-17 -4.17472e-17 2.16e-11 1.05285e-24 6.46435e-36
3226 1 0.000635 -0.0020727 0.00254 -0.014904 0 1.43996e-20 2.16e-11 0 0
3313 1 0.000635 -0.000972852 0.003175 -0.014904 0 -3.57823e-17 2.16e-11 1.05285e-24 3.23218e-36
3399 1 0.000635 0.000127 0.00254 -0.014904 0 1.35525e-20 2.16e-11 0 0
3486 1 0.000635 0.00122685 0.003175 -0.014904 0 -3.57823e-17 2.16e-11 1.05285e-24 3.23218e-36
3572 1 0.000635 0.0023267 0.00254 -0.014904 -6.77626e-21 1.35525e-20 2.16e-11 0 0
3659 1 0.000635 0.00342656 0.003175 -0.014904 3.09777e-17 -4.17463e-17 2.16e-11 1.05285e-24 6.46435e-36
3745 1 0.000635 0.00452641 0.00254 -0.014904 4.13115e-17 1.19382e-17 2.16e-11 5.26426e-25 1.93931e-35
3832 1 0.000635 0.00562626 0.003175 -0.014904 -1.44595e-16 -4.77053e-17 2.16e-11 5.26426e-25 3.55539e-35
3917 1 0.000635 0.00672611 0.00254 -0.014904 7.23095e-17 5.97502e-18 2.16e-11 0 1.61609e-35
4003 1 0.000635 0.00782597 0.003175 -0.014904 0 -3.57823e-17 2.16e-11 1.05285e-24 3.23218e-36
4088 1 0.000635 0.00892582 0.00254 -0.014904 -8.47033e-21 1.27055e-20 2.16e-11 0 0
4174 1 0.000635 0.0100257 0.003175 -0.014904 1.3427e-16 -4.1748e-17 2.16e-11 5.26426e-25 5.81792e-35
4259 1 0.000635 0.0111255 0.00254 -0.014904 1.21339e-07 3.21339e-08 -4.44603e-06 1.89491e-10 6.33506e-35
4344 1 0.000635 0.0122254 0.003175 -0.014904 5.00218e-05 -5.6073e-06 1.80293e-05 2.4503e-10 8.41965e-12
2456 1 0.000635 -0.0119714 0.004445 -0.014904 -0.000161477 0.000115524 6.15457e-05 3.77939e-10 1.28108e-10
2540 1 0.000635 -0.0108715 0.00381 -0.014904 -1.8569e-07 9.95451e-08 -5.6995e-06 3.14174e-10 4.65433e-35
2626 1 0.000635 -0.00977167 0.004445 -0.014904 -4.09247e-09 -7.08837e-09 -4.05442e-07 3.10907e-12 6.01185e-35
2711 1 0.000635 -0.00867182 0.00381 -0.014904 -8.2623e-17 0 2.16e-11 1.05285e-24 2.06859e-35
2797 1 0.000635 -0.00757197 0.004445 -0.014904 1.44602e-16 5.96282e-17 2.16e-11 5.26426e-25 3.74932e-35
2882 1 0.000635 -0.00647211 0.00381 -0.014904 -1.44605e-16 0 2.16e-11 0 3.23218e-35
2968 1 0.000635 -0.00537226 0.004445 -0.014904 1.44604e-16 5.9629e-17 2.16e-11 5.26426e-25 3.74932e-35
3054 1 0.000635 -0.00427241 0.00381 -0.014904 -1.03291e-16 0 2.16e-11 0 1.68073e-35
3141 1 0.000635 -0.00317256 0.004445 -0.014904 3.09963e-17 5.36693e-17 2.16e-11 1.57928e-24 8.40366e-36
3227 1 0.000635 -0.0020727 0.00381 -0.014904 -6.77626e-21 0 2.16e-11 2.10571e-24 0
3314 1 0.000635 -0.000972852 0.004445 -0.014904 0 4.77053e-17 2.16e-11 1.05285e-24 5.17148e-36
3400 1 0.000635 0.000127 0.00381 -0.014904 0 0 2.16e-11 1.05285e-24 0
3487 1 0.000635 0.00122685 0.004445 -0.014904 0 4.77053e-17 2.16e-11 1.05285e-24 5.17148e-36
3573 1 0.000635 0.0023267 0.00381 -0.014904 0 0 2.16e-11 2.10571e-24 0
3660 1 0.000635 0.00342656 0.004445 -0.014904 3.09811e-17 5.36701e-17 2.16e-11 1.05285e-24 8.40366e-36
3746 1 0.000635 0.00452641 0.00381 -0.014904 4.13217e-17 0 2.16e-11 0 1.29287e-35
3833 1 0.000635 0.00562626 0.004445 -0.014904 -1.44597e-16 5.9629e-17 2.16e-11 5.26426e-25 3.74932e-35
3918 1 0.000635 0.00672611 0.00381 -0.014904 8.26298e-17 0 2.16e-11 1.05285e-24 2.06859e-35
4004 1 0.000635 0.00782597 0.004445 -0.014904 -3.38813e-21 4.77061e-17 2.16e-11 1.05285e-24 5.17148e-36
4089 1 0.000635 0.00892582 0.00381 -0.014904 -6.77626e-21 0 2.16e-11 1.05285e-24 0
4175 1 0.000635 0.0100257 0.004445 -0.014904 1.87528e-08 -3.24808e-08 -5.44756e-07 5.63843e-12 6.01185e-35
4260 1 0.000635 0.0111255 0.00381 -0.014904 1.24061e-07 3.13635e-08 -4.55805e-06 1.99022e-10 4.65433e-35
4345 1 0.000635 0.0122254 0.004445 -0.014904 0.000140181 0.000196227 3.99375e-05 2.32546e-09 2.78715e-10
2541 1 0.000635 -0.0108715 0.00508 -0.014904 -1.75148e-05 1.02555e-05 -3.63908e-06 2.42166e-10 1.82393e-12
2712 1 0.000635 -0.00867182 0.00508 -0.014904 -6.19774e-17 2.3845e-17 2.16e-11 0 1.42216e-35
2883 1 0.000635 -0.00647211 0.00508 -0.014904 -1.44605e-16 2.38442e-17 2.16e-11 0 3.49075e-35
3055 1 0.000635 -0.00427241 0.00508 -0.014904 -1.03287e-16 2.38433e-17 2.16e-11 1.57928e-24 2.45645e-35
3228 1 0.000635 -0.0020727 0.00508 -0.014904 -3.38813e-21 2.38442e-17 2.16e-11 0 2.58574e-36
3401 1 0.000635 0.000127 0.00508 -0.014904 0 2.38442e-17 2.16e-11 0 2.58574e-36
3574 1 0.000635 0.0023267 0.00508 -0.014904 -3.38813e-21 2.38459e-17 2.16e-11 0 2.58574e-36
3747 1 0.000635 0.00452641 0.00508 -0.014904 4.13081e-17 2.38433e-17 2.16e-11 5.26426e-25 2.84431e-35
3919 1 0.000635 0.00672611 0.00508 -0.014904 6.19859e-17 2.38442e-17 2.16e-11 0 1.42216e-35
4090 1 0.000635 0.00892582 0.00508 -0.014904 -8.47033e-21 2.3845e-17 2.16e-11 0 2.58574e-36
4261 1 0.000635 0.0111255 0.00508 -0.014904 -4.73389e-05 -2.70348e-05 -1.16254e-05 1.02706e-09 1.37716e-11
2542 1 0.000635 -0.0108715 0.00635 -0.014904 -6.30853e-05 7.43047e-05 7.36233e-06 1.27233e-10 3.60102e-11
2627 1 0.000635 -0.00977167 0.005715 -0.014904 -3.3958e-09 -5.88169e-09 -9.5018e-07 1.7094e-11 6.85221e-35
2713 1 0.000635 -0.00867182 0.00635 -0.014904 -1.61679e-10 -2.80036e-10 -3.80949e-07 2.74357e-12 2.9736e-35
2798 1 0.000635 -0.00757197 0.005715 -0.014904 1.44602e-16 -4.76832e-17 2.16e-11 0 3.74932e-35
2884 1 0.000635 -0.00647211 0.00635 -0.014904 -1.44609e-16 -7.15816e-17 2.16e-11 0 4.0079e-35
2969 1 0.000635 -0.00537226 0.005715 -0.014904 1.44604e-16 -4.76841e-17 2.16e-11 5.26426e-25 3.74932e-35
3056 1 0.000635 -0.00427241 0.00635 -0.014904 -1.13621e-16 -7.75431e-17 2.16e-11 0 2.90896e-35
3142 1 0.000635 -0.00317256 0.005715 -0.014904 2.0671e-17 -4.76858e-17 2.16e-11 5.26426e-25 6.46435e-36
3229 1 0.000635 -0.0020727 0.00635 -0.014904 -5.0822e-21 -7.15842e-17 2.16e-11 0 1.0343e-35
3315 1 0.000635 -0.000972852 0.005715 -0.014904 0 -4.76866e-17 2.16e-11 0 5.17148e-36
3402 1 0.000635 0.000127 0.00635 -0.014904 0 -7.1585e-17 2.16e-11 0 1.0343e-35
3488 1 0.000635 0.00122685 0.005715 -0.014904 0 -4.76866e-17 2.16e-11 0 5.17148e-36
3575 1 0.000635 0.0023267 0.00635 -0.014904 0 -7.15842e-17 2.16e-11 0 1.0343e-35
3661 1 0.000635 0.00342656 0.005715 -0.014904 4.13098e-17 -4.76858e-17 2.16e-11 0 1.0343e-35
3748 1 0.000635 0.00452641 0.00635 -0.014904 4.13183e-17 -7.15816e-17 2.16e-11 0 2.06859e-35
3834 1 0.000635 0.00562626 0.005715 -0.014904 -1.44597e-16 -4.76841e-17 2.16e-11 0 3.74932e-35
3920 1 0.000635 0.00672611 0.00635 -0.014904 6.19774e-17 -7.15825e-17 2.16e-11 0 2.9736e-35
4005 1 0.000635 0.00782597 0.005715 -0.014904 -6.77626e-21 -4.76849e-17 2.16e-11 0 5.17148e-36
4091 1 0.000635 0.00892582 0.00635 -0.014904 -1.59892e-08 2.76942e-08 -1.34762e-06 3.44655e-11 1.0343e-35
4176 1 0.000635 0.0100257 0.005715 -0.014904 -4.9792e-08 8.62422e-08 -3.82718e-06 2.85591e-10 6.85221e-35
4262 1 0.000635 0.0111255 0.00635 -0.014904 -0.000325857 2.69037e-05 -7.38371e-05 1.50593e-09 3.47474e-10
2628 1 0.000635 -0.00977167 0.006985 -0.014904 -7.98246e-06 4.5553e-06 -2.32913e-06 9.24407e-11 3.74426e-13
2714 1 0.000635 -0.00867182 0.00762 -0.014904 -7.63312e-08 2.34974e-08 -3.4384e-06 1.12963e-10 2.9736e-35