ITEM: TIMESTEP
1820000
ITEM: NUMBER OF ATOMS
6793
ITEM: BOX BOUNDS ff ff ff
-8.9999999999999997e-02 8.9999999999999997e-02
-8.9999999999999997e-02 8.9999999999999997e-02
-4.0000000000000001e-02 4.0000000000000001e-02
ITEM: ATOMS id type radius x y z fx fy fz c_bendingE c_stretchingE
3385 1 0.000635 0.000115336 -0.0151773 -0.0191423 3.07091e-10 -5.85666e-10 -1.22649e-09 3.55053e-09 6.60565e-11
3471 1 0.000635 0.00115412 -0.0156718 -0.0186046 1.34807e-09 -2.93659e-09 -4.34045e-09 3.50224e-09 1.63047e-10
3558 1 0.000635 0.00223794 -0.0150118 -0.018602 9.7103e-10 -1.43329e-09 -1.84176e-09 2.83837e-10 4.86359e-11
3213 1 0.000635 -0.00207188 -0.0139545 -0.0194671 -1.50759e-10 1.4631e-11 -1.08234e-09 5.8427e-09 3.60993e-10
3299 1 0.000635 -0.000974478 -0.0145871 -0.0194139 3.76617e-11 -5.07057e-11 -8.9945e-10 5.38386e-09 1.0612e-10
3386 1 0.000635 0.000125684 -0.0139632 -0.0195191 -1.69185e-10 1.70915e-12 -2.47956e-10 3.92561e-09 4.2093e-11
3472 1 0.000635 0.00120447 -0.0145267 -0.0191572 -1.62595e-09 2.62073e-09 7.28924e-09 1.88077e-09 1.72475e-10
3559 1 0.000635 0.00227977 -0.0138537 -0.0191228 2.39833e-10 -6.89315e-11 6.05759e-10 8.05361e-10 2.09489e-10
3645 1 0.000635 0.00332892 -0.0143637 -0.0186231 8.69833e-10 -1.48088e-09 -1.97851e-09 1.9851e-10 4.88164e-11
3732 1 0.000635 0.00445436 -0.0138086 -0.0188107 6.24472e-10 -9.07205e-10 -1.54185e-09 2.04793e-10 7.25043e-11
3041 1 0.000635 -0.00426686 -0.0126865 -0.0194794 -2.07904e-10 2.21108e-10 3.06646e-10 3.77488e-09 1.35824e-10
3127 1 0.000635 -0.00316873 -0.0133201 -0.0194768 -4.15529e-10 3.56325e-11 -7.60642e-10 4.4671e-09 3.50617e-10
3214 1 0.000635 -0.0020727 -0.0127 -0.019656 -9.50971e-05 1.6323e-05 -7.11892e-06 5.04299e-09 7.92841e-11
3300 1 0.000635 -0.000973362 -0.0133355 -0.0196302 -8.90989e-11 -3.146e-10 -3.45482e-09 3.95337e-09 5.20097e-11
3387 1 0.000635 0.000127 -0.0127 -0.019656 -5.71294e-05 -5.14581e-05 6.74932e-07 4.28607e-10 1.76961e-11
3473 1 0.000635 0.00122571 -0.0133338 -0.0195982 -5.75558e-11 2.35469e-10 1.62854e-09 5.43846e-10 1.65035e-10
3560 1 0.000635 0.0023267 -0.0127 -0.019656 8.08167e-05 -0.000224252 0.000121936 6.80451e-10 2.6586e-10
3646 1 0.000635 0.00339705 -0.0132734 -0.0192718 -1.83563e-10 9.59385e-10 2.31395e-09 6.64567e-10 3.22956e-10
3733 1 0.000635 0.00450738 -0.0126631 -0.0193555 2.62382e-10 -3.8495e-10 -9.27588e-10 4.353e-10 4.81553e-11
3819 1 0.000635 0.0055709 -0.0132174 -0.0189345 2.82218e-10 -1.77199e-10 -2.81204e-10 1.61296e-10 2.99335e-11
3905 1 0.000635 0.00668288 -0.0126122 -0.0190317 3.04589e-10 -5.43683e-10 -1.17768e-09 1.77739e-10 5.11076e-12
3990 1 0.000635 0.0077452 -0.0131648 -0.0186081 1.37747e-10 4.80435e-10 5.67169e-10 2.03365e-09 1.23475e-10
4076 1 0.000635 0.00885439 -0.0125522 -0.0186946 -1.7157e-10 8.23094e-10 1.30488e-09 3.66935e-09 8.54333e-12
2784 1 0.000635 -0.00734691 -0.0116828 -0.0186094 1.41301e-09 3.37283e-09 1.55894e-09 2.86335e-09 5.60576e-11
2870 1 0.000635 -0.00646425 -0.0114182 -0.019482 -1.80267e-10 2.99708e-11 -7.40166e-10 2.95905e-09 5.7869e-11
2955 1 0.000635 -0.0053654 -0.0120525 -0.019481 -1.18524e-10 1.84623e-10 2.37248e-10 3.29419e-09 6.30839e-11
3042 1 0.000635 -0.00427241 -0.01143 -0.019656 3.06452e-07 6.24371e-05 -1.82597e-05 2.96826e-09 1.88796e-11
3128 1 0.000635 -0.00317256 -0.012065 -0.019656 -4.07197e-05 9.32252e-05 -2.09175e-05 3.70386e-09 7.29159e-11
3215 1 0.000635 -0.0020727 -0.01143 -0.019656 3.21551e-08 -6.8252e-08 -3.22397e-06 9.89656e-11 5.17148e-36
3301 1 0.000635 -0.000972852 -0.012065 -0.019656 2.67862e-08 -3.99997e-05 -2.50646e-06 1.07199e-10 7.23418e-12
3388 1 0.000635 0.000127 -0.01143 -0.019656 1.15998e-08 -1.69407e-21 -1.2066e-06 2.75965e-11 5.17148e-36
3474 1 0.000635 0.00122685 -0.012065 -0.019656 -1.97123e-08 -7.9837e-06 -5.64181e-06 4.5373e-10 2.60323e-13
3561 1 0.000635 0.0023267 -0.01143 -0.019656 3.14357e-07 -1.71382e-07 -7.34341e-06 5.75491e-10 5.17148e-36
3647 1 0.000635 0.00342656 -0.012065 -0.019656 6.26337e-05 5.07833e-05 -1.90169e-06 5.14339e-10 5.87229e-11
3734 1 0.000635 0.00452641 -0.01143 -0.019656 2.39132e-05 2.32926e-05 2.70204e-06 3.54411e-10 9.78539e-12
3820 1 0.000635 0.00561294 -0.0120402 -0.0194085 1.36875e-10 -2.05689e-10 -5.74982e-10 3.33065e-10 8.62472e-12
3906 1 0.000635 0.00671646 -0.0114126 -0.0194472 -2.73997e-10 5.86467e-10 2.38969e-09 2.76381e-10 2.67523e-12
3991 1 0.000635 0.00779338 -0.0120029 -0.0191236 1.59007e-10 -3.69732e-10 -1.53909e-09 2.79768e-09 8.82186e-11
2614 1 0.000635 -0.00960411 -0.0105322 -0.0187174 -1.89457e-09 -3.24569e-09 -1.1424e-09 2.73295e-09 3.09863e-10
2699 1 0.000635 -0.0084757 -0.0111064 -0.0186607 1.54867e-10 4.35372e-10 4.0816e-10 2.73349e-09 1.62892e-10
2785 1 0.000635 -0.00756313 -0.0107836 -0.0194809 -4.66481e-10 1.89437e-11 -1.0232e-09 2.72458e-09 8.463e-11
2956 1 0.000635 -0.00537226 -0.010795 -0.019656 3.10068e-05 3.75481e-05 -1.60809e-05 2.46215e-09 8.88053e-12
3129 1 0.000635 -0.00317256 -0.010795 -0.019656 -1.10952e-09 -5.66657e-08 -3.12649e-06 9.29358e-11 6.46435e-36
3302 1 0.000635 -0.000972852 -0.010795 -0.019656 4.49671e-09 0 -2.271e-07 9.75299e-13 5.17148e-36
3475 1 0.000635 0.00122685 -0.010795 -0.019656 1.0064e-08 0 -5.09438e-07 4.90933e-12 5.17148e-36
3648 1 0.000635 0.00342656 -0.010795 -0.019656 1.95335e-07 -1.12979e-07 -5.57514e-06 3.1533e-10 1.0343e-35
3821 1 0.000635 0.00562626 -0.010795 -0.019656 1.11128e-05 1.27654e-05 3.27534e-06 2.60077e-10 2.42915e-12
3992 1 0.000635 0.00781938 -0.0107832 -0.0194812 3.59615e-10 -8.89477e-10 -4.91213e-09 1.38739e-09 6.24062e-11
4077 1 0.000635 0.00889852 -0.0113782 -0.0191767 -9.65112e-10 1.13925e-09 3.10301e-09 2.69164e-09 1.43278e-11
4163 1 0.000635 0.00989054 -0.0106552 -0.0188498 -9.29594e-10 5.98685e-10 1.27986e-09 3.06514e-09 2.10271e-11
2445 1 0.000635 -0.0118605 -0.0093895 -0.0188501 -7.35814e-10 1.93089e-10 9.40661e-11 3.49648e-09 3.94176e-10
2529 1 0.000635 -0.0107327 -0.00996108 -0.0187809 -1.56153e-09 -9.42683e-10 5.46025e-10 3.01636e-09 4.11086e-10
2615 1 0.000635 -0.00975898 -0.00951156 -0.0194588 2.6277e-10 1.00813e-09 4.65231e-09 2.68093e-09 2.51062e-10
2700 1 0.000635 -0.00866165 -0.0101482 -0.0194748 -3.02897e-10 5.67069e-10 1.77546e-09 2.60575e-09 1.33146e-10
2786 1 0.000635 -0.00757197 -0.009525 -0.019656 7.78247e-05 3.52343e-06 -1.31127e-05 1.66441e-09 4.59377e-11
2871 1 0.000635 -0.00647211 -0.01016 -0.019656 5.54563e-05 1.83327e-05 -1.43091e-05 2.04906e-09 2.07971e-11
2957 1 0.000635 -0.00537226 -0.009525 -0.019656 -3.63421e-08 -4.18269e-08 -3.08916e-06 9.07179e-11 3.74932e-35
3043 1 0.000635 -0.00427241 -0.01016 -0.019656 -2.13828e-08 -4.78809e-08 -3.0942e-06 9.10101e-11 2.71503e-35
3130 1 0.000635 -0.00317256 -0.009525 -0.019656 2.0671e-17 0 2.16e-11 1.05285e-24 6.46435e-36
3216 1 0.000635 -0.0020727 -0.01016 -0.019656 -6.77626e-21 0 2.16e-11 0 5.17148e-36
3303 1 0.000635 -0.000972852 -0.009525 -0.019656 0 0 2.16e-11 0 5.17148e-36
3389 1 0.000635 0.000127 -0.01016 -0.019656 0 0 2.16e-11 0 5.17148e-36
3476 1 0.000635 0.00122685 -0.009525 -0.019656 0 0 2.16e-11 0 5.17148e-36
3562 1 0.000635 0.0023267 -0.01016 -0.019656 0 0 2.16e-11 0 5.17148e-36
3649 1 0.000635 0.00342656 -0.009525 -0.019656 4.13115e-17 0 2.16e-11 0 1.0343e-35
3735 1 0.000635 0.00452641 -0.01016 -0.019656 1.22527e-07 -7.85515e-08 -4.49287e-06 2.00014e-10 3.10289e-35
3822 1 0.000635 0.00562626 -0.009525 -0.019656 8.68817e-08 -5.31193e-08 -3.72496e-06 1.36427e-10 3.74932e-35
3907 1 0.000635 0.00672611 -0.01016 -0.019656 2.29516e-05 -5.77006e-06 6.17025e-06 2.03829e-10 3.47167e-12
3993 1 0.000635 0.00782597 -0.009525 -0.019656 2.15316e-05 -2.72971e-05 5.17658e-06 5.18377e-10 3.79473e-12
4078 1 0.000635 0.0089209 -0.0101484 -0.0194931 3.96397e-10 -4.53713e-10 -2.56195e-09 2.68897e-09 1.4892e-10
4164 1 0.000635 0.00999756 -0.00948768 -0.0193388 -1.26839e-09 8.49991e-10 3.3248e-09 2.42647e-09 3.22096e-10
2277 1 0.000635 -0.0141116 -0.00823025 -0.018983 -7.68494e-10 8.97096e-10 -6.9934e-10 5.77217e-09 1.34967e-10
2361 1 0.000635 -0.0129874 -0.00881427 -0.01892 -7.48392e-10 4.7486e-10 -7.61111e-10 7.25402e-09 1.9375e-10
2446 1 0.000635 -0.011956 -0.00824552 -0.0193947 -6.87507e-10 -1.77992e-10 -1.52085e-09 4.15498e-09 3.77721e-11
2530 1 0.000635 -0.0108562 -0.0088771 -0.0194326 1.25406e-10 5.5387e-10 2.53945e-09 3.1063e-09 1.12076e-10
2616 1 0.000635 -0.00977167 -0.008255 -0.019656 -2.58079e-05 -0.000100808 1.87441e-05 8.97942e-10 5.80509e-11
2701 1 0.000635 -0.00867182 -0.00889 -0.019656 0.00010589 -8.23359e-06 -1.3599e-05 1.27782e-09 9.17422e-11
2787 1 0.000635 -0.00757197 -0.008255 -0.019656 -5.44523e-08 -4.05315e-08 -3.28563e-06 1.03105e-10 4.0079e-35
2872 1 0.000635 -0.00647211 -0.00889 -0.019656 -4.67791e-08 -3.91046e-08 -3.13441e-06 9.34636e-11 3.74932e-35
2958 1 0.000635 -0.00537226 -0.008255 -0.019656 1.44607e-16 -7.15799e-17 2.16e-11 5.26426e-25 4.0079e-35
3044 1 0.000635 -0.00427241 -0.00889 -0.019656 -1.03289e-16 -4.76841e-17 2.16e-11 1.05285e-24 2.71503e-35
3131 1 0.000635 -0.00317256 -0.008255 -0.019656 3.09912e-17 -7.75431e-17 2.16e-11 5.26426e-25 1.87466e-35
3217 1 0.000635 -0.0020727 -0.00889 -0.019656 -3.38813e-21 -4.76866e-17 2.16e-11 0 5.17148e-36
3304 1 0.000635 -0.000972852 -0.008255 -0.019656 0 -7.15833e-17 2.16e-11 0 1.0343e-35
3390 1 0.000635 0.000127 -0.00889 -0.019656 0 -4.76866e-17 2.16e-11 0 5.17148e-36
3477 1 0.000635 0.00122685 -0.008255 -0.019656 0 -7.15833e-17 2.16e-11 0 1.0343e-35
3563 1 0.000635 0.0023267 -0.00889 -0.019656 0 -4.76858e-17 2.16e-11 0 5.17148e-36
3650 1 0.000635 0.00342656 -0.008255 -0.019656 4.13098e-17 -7.15825e-17 2.16e-11 0 1.0343e-35
3736 1 0.000635 0.00452641 -0.00889 -0.019656 4.13115e-17 -4.76841e-17 2.16e-11 0 3.10289e-35
3823 1 0.000635 0.00562626 -0.008255 -0.019656 -1.446e-16 -7.15791e-17 2.16e-11 0 4.0079e-35
3908 1 0.000635 0.00672611 -0.00889 -0.019656 5.16244e-08 -5.80125e-08 -3.27794e-06 1.03901e-10 1.68073e-35
3994 1 0.000635 0.00782597 -0.008255 -0.019656 -2.26179e-08 -1.39794e-07 -4.34474e-06 1.96585e-10 1.0343e-35
4079 1 0.000635 0.00892582 -0.00889 -0.019656 -0.000116894 0.000125035 -4.40679e-05 1.32164e-09 1.05312e-10
4165 1 0.000635 0.0100257 -0.008255 -0.019656 0.000489404 9.34255e-05 0.000152851 1.89783e-09 1.49481e-09
4250 1 0.000635 0.0109628 -0.00875542 -0.0189588 2.7586e-09 -2.0347e-09 -3.47134e-09 2.57312e-09 6.67613e-11
2278 1 0.000635 -0.0140687 -0.00696507 -0.0189112 -1.79422e-09 1.10552e-09 -3.3641e-09 4.69275e-09 1.6922e-10
2362 1 0.000635 -0.0130529 -0.00761045 -0.019318 -4.82258e-10 5.95007e-10 -1.34255e-10 3.43331e-09 1.25353e-10
2447 1 0.000635 -0.0119676 -0.006984 -0.0195378 -6.2359e-10 8.2705e-11 -1.83507e-09 4.98702e-10 1.25749e-10
2531 1 0.000635 -0.0108709 -0.00761971 -0.0196091 -7.05595e-11 2.51486e-10 2.22288e-09 6.09068e-10 2.02289e-11
2617 1 0.000635 -0.00977167 -0.006985 -0.019656 -6.97424e-06 -3.97023e-06 -2.52444e-06 1.05872e-10 2.83401e-13
2702 1 0.000635 -0.00867182 -0.00762 -0.019656 -7.40676e-08 -2.6928e-08 -3.56656e-06 1.22507e-10 2.9736e-35
2788 1 0.000635 -0.00757197 -0.006985 -0.019656 1.44605e-16 -2.38958e-17 2.16e-11 0 4.0079e-35
2873 1 0.000635 -0.00647211 -0.00762 -0.019656 -1.44609e-16 2.38967e-17 2.16e-11 0 4.0079e-35
2959 1 0.000635 -0.00537226 -0.006985 -0.019656 1.44605e-16 -2.38958e-17 2.16e-11 0 4.0079e-35
3045 1 0.000635 -0.00427241 -0.00762 -0.019656 -1.13623e-16 2.98573e-17 2.16e-11 0 2.90896e-35
3132 1 0.000635 -0.00317256 -0.006985 -0.019656 3.09912e-17 -2.98573e-17 2.16e-11 0 1.87466e-35
3218 1 0.000635 -0.0020727 -0.00762 -0.019656 -1.69407e-21 2.38958e-17 2.16e-11 0 1.0343e-35
3305 1 0.000635 -0.000972852 -0.006985 -0.019656 0 -2.38967e-17 2.16e-11 0 1.0343e-35
3391 1 0.000635 0.000127 -0.00762 -0.019656 0 2.38967e-17 2.16e-11 0 1.0343e-35
3478 1 0.000635 0.00122685 -0.006985 -0.019656 0 -2.38967e-17 2.16e-11 0 1.0343e-35
3564 1 0.000635 0.0023267 -0.00762 -0.019656 0 2.38967e-17 2.16e-11 0 1.0343e-35
3651 1 0.000635 0.00342656 -0.006985 -0.019656 4.13081e-17 -2.38967e-17 2.16e-11 0 1.0343e-35
3737 1 0.000635 0.00452641 -0.00762 -0.019656 4.13217e-17 2.38958e-17 2.16e-11 0 2.06859e-35
3824 1 0.000635 0.00562626 -0.006985 -0.019656 -1.44599e-16 -2.3895e-17 2.16e-11 0 4.0079e-35
3909 1 0.000635 0.00672611 -0.00762 -0.019656 6.19757e-17 2.38958e-17 2.16e-11 0 2.9736e-35
3995 1 0.000635 0.00782597 -0.006985 -0.019656 -6.77626e-21 -2.38967e-17 2.16e-11 0 1.0343e-35
4080 1 0.000635 0.00892582 -0.00762 -0.019656 -1.11661e-07 -2.68599e-07 -7.58361e-06 8.18855e-10 1.0343e-35
4166 1 0.000635 0.0100257 -0.006985 -0.019656 -0.00012457 7.09082e-05 -2.84758e-05 1.46969e-09 9.67512e-11
4251 1 0.000635 0.0111149 -0.00760739 -0.0194759 3.8726e-11 -1.55529e-10 -4.40362e-10 2.34264e-09 2.35588e-09
4336 1 0.000635 0.0121377 -0.00691421 -0.0191499 1.38809e-09 -9.72537e-10 -3.17045e-09 2.8695e-09 1.99671e-09
2279 1 0.000635 -0.0140175 -0.00570027 -0.0188277 -5.00135e-10 6.56823e-10 -8.13773e-10 3.17591e-10 8.36027e-11
2363 1 0.000635 -0.0130415 -0.00634145 -0.0193263 -1.32158e-09 4.81218e-10 -3.26724e-09 6.03132e-10 1.32227e-10
2448 1 0.000635 -0.0119704 -0.00571576 -0.0196078 4.45533e-11 1.6244e-10 1.50315e-09 3.95848e-10 1.40281e-10
2532 1 0.000635 -0.0108715 -0.00635 -0.019656 -6.93693e-05 -8.75751e-05 8.97778e-06 1.63722e-10 4.77513e-11
2618 1 0.000635 -0.00977167 -0.005715 -0.019656 -4.46146e-09 7.72748e-09 -1.04081e-06 2.05181e-11 6.85221e-35
2703 1 0.000635 -0.00867182 -0.00635 -0.019656 -3.38805e-10 5.86827e-10 -4.13165e-07 3.22737e-12 2.9736e-35
2789 1 0.000635 -0.00757197 -0.005715 -0.019656 1.44602e-16 4.76832e-17 2.16e-11 0 3.74932e-35
2874 1 0.000635 -0.00647211 -0.00635 -0.019656 -1.44609e-16 7.15816e-17 2.16e-11 0 4.0079e-35
2960 1 0.000635 -0.00537226 -0.005715 -0.019656 1.44604e-16 4.76841e-17 2.16e-11 5.26426e-25 3.74932e-35
3046 1 0.000635 -0.00427241 -0.00635 -0.019656 -1.13621e-16 7.75431e-17 2.16e-11 0 2.90896e-35
3133 1 0.000635 -0.00317256 -0.005715 -0.019656 2.0671e-17 4.76858e-17 2.16e-11 5.26426e-25 6.46435e-36
3219 1 0.000635 -0.0020727 -0.00635 -0.019656 -5.0822e-21 7.15842e-17 2.16e-11 0 1.0343e-35
3306 1 0.000635 -0.000972852 -0.005715 -0.019656 0 4.76866e-17 2.16e-11 0 5.17148e-36
3392 1 0.000635 0.000127 -0.00635 -0.019656 0 7.1585e-17 2.16e-11 0 1.0343e-35
3479 1 0.000635 0.00122685 -0.005715 -0.019656 0 4.76866e-17 2.16e-11 0 5.17148e-36
3565 1 0.000635 0.0023267 -0.00635 -0.019656 0 7.15842e-17 2.16e-11 0 1.0343e-35
3652 1 0.000635 0.00342656 -0.005715 -0.019656 4.13098e-17 4.76858e-17 2.16e-11 0 1.0343e-35
3738 1 0.000635 0.00452641 -0.00635 -0.019656 4.13183e-17 7.15816e-17 2.16e-11 0 2.06859e-35
3825 1 0.000635 0.00562626 -0.005715 -0.019656 -1.44597e-16 4.76841e-17 2.16e-11 0 3.74932e-35
3910 1 0.000635 0.00672611 -0.00635 -0.019656 6.19774e-17 7.15825e-17 2.16e-11 0 2.9736e-35
3996 1 0.000635 0.00782597 -0.005715 -0.019656 -6.77626e-21 4.76849e-17 2.16e-11 0 5.17148e-36
4081 1 0.000635 0.00892582 -0.00635 -0.019656 -2.47248e-08 -4.28247e-08 -1.59131e-06 4.81461e-11 1.0343e-35
4167 1 0.000635 0.0100257 -0.005715 -0.019656 -7.74509e-08 -1.34149e-07 -4.48277e-06 3.96813e-10 6.85221e-35
4252 1 0.000635 0.0111255 -0.00635 -0.019656 -0.000459681 -9.56294e-06 -0.000130451 2.1328e-09 7.08855e-10
4337 1 0.000635 0.01222 -0.00571856 -0.0195894 1.6609e-10 2.70131e-11 -8.65696e-10 3.12367e-09 1.55071e-09
4421 1 0.000635 0.0130091 -0.00611426 -0.01868 1.25659e-09 -7.92972e-10 -2.24691e-09 5.276e-09 3.16684e-10
2364 1 0.000635 -0.0130222 -0.00507324 -0.0193089 -5.77521e-10 4.3622e-10 -9.11417e-10 4.90111e-10 3.0706e-10
2533 1 0.000635 -0.0108715 -0.00508 -0.019656 -2.24167e-05 -1.31185e-05 -3.9614e-06 3.01471e-10 2.99074e-12
2704 1 0.000635 -0.00867182 -0.00508 -0.019656 -6.19774e-17 -2.3845e-17 2.16e-11 0 1.42216e-35
2875 1 0.000635 -0.00647211 -0.00508 -0.019656 -1.44605e-16 -2.38442e-17 2.16e-11 0 3.49075e-35
3047 1 0.000635 -0.00427241 -0.00508 -0.019656 -1.03287e-16 -2.38433e-17 2.16e-11 1.57928e-24 2.45645e-35
3220 1 0.000635 -0.0020727 -0.00508 -0.019656 -3.38813e-21 -2.38442e-17 2.16e-11 0 2.58574e-36
3393 1 0.000635 0.000127 -0.00508 -0.019656 0 -2.38442e-17 2.16e-11 0 2.58574e-36
3566 1 0.000635 0.0023267 -0.00508 -0.019656 -3.38813e-21 -2.38459e-17 2.16e-11 0 2.58574e-36
3739 1 0.000635 0.00452641 -0.00508 -0.019656 4.13081e-17 -2.38433e-17 2.16e-11 5.26426e-25 2.84431e-35
3911 1 0.000635 0.00672611 -0.00508 -0.019656 6.19859e-17 -2.38442e-17 2.16e-11 0 1.42216e-35
4082 1 0.000635 0.00892582 -0.00508 -0.019656 -8.47033e-21 -2.3845e-17 2.16e-11 0 2.58574e-36
4253 1 0.000635 0.0111255 -0.00508 -0.019656 -5.12871e-05 2.91837e-05 -1.37354e-05 1.45428e-09 1.61995e-11
4422 1 0.000635 0.0132891 -0.00507801 -0.019364 5.03212e-10 1.68681e-10 -1.55681e-09 3.98939e-09 3.86571e-10
2280 1 0.000635 -0.013938 -0.0044406 -0.0186979 -6.66285e-10 5.32177e-10 -6.85616e-10 3.30464e-10 3.63862e-11
2365 1 0.000635 -0.0130048 -0.00380675 -0.0192804 2.56939e-10 2.2331e-10 6.79832e-10 5.57077e-10 2.42501e-10
2449 1 0.000635 -0.0119714 -0.004445 -0.019656 -0.00017477 -0.000121639 7.41405e-05 4.72368e-10 1.51495e-10
2534 1 0.000635 -0.0108715 -0.00381 -0.019656 -2.33088e-07 -1.18913e-07 -6.3587e-06 3.93064e-10 4.65433e-35
2619 1 0.000635 -0.00977167 -0.004445 -0.019656 -4.99552e-09 8.6525e-09 -4.24722e-07 3.41238e-12 6.01185e-35
2705 1 0.000635 -0.00867182 -0.00381 -0.019656 -8.2623e-17 0 2.16e-11 1.05285e-24 2.06859e-35
2790 1 0.000635 -0.00757197 -0.004445 -0.019656 1.44602e-16 -5.96282e-17 2.16e-11 5.26426e-25 3.74932e-35
2876 1 0.000635 -0.00647211 -0.00381 -0.019656 -1.44605e-16 0 2.16e-11 0 3.23218e-35
2961 1 0.000635 -0.00537226 -0.004445 -0.019656 1.44604e-16 -5.9629e-17 2.16e-11 5.26426e-25 3.74932e-35
3048 1 0.000635 -0.00427241 -0.00381 -0.019656 -1.03291e-16 0 2.16e-11 0 1.68073e-35
3134 1 0.000635 -0.00317256 -0.004445 -0.019656 3.09963e-17 -5.36693e-17 2.16e-11 1.57928e-24 8.40366e-36
3221 1 0.000635 -0.0020727 -0.00381 -0.019656 -6.77626e-21 0 2.16e-11 2.10571e-24 0
3307 1 0.000635 -0.000972852 -0.004445 -0.019656 0 -4.77053e-17 2.16e-11 1.05285e-24 5.17148e-36
3394 1 0.000635 0.000127 -0.00381 -0.019656 0 0 2.16e-11 1.05285e-24 0
3480 1 0.000635 0.00122685 -0.004445 -0.019656 0 -4.77053e-17 2.16e-11 1.05285e-24 5.17148e-36
3567 1 0.000635 0.0023267 -0.00381 -0.019656 0 0 2.16e-11 2.10571e-24 0
3653 1 0.000635 0.00342656 -0.004445 -0.019656 3.09811e-17 -5.36701e-17 2.16e-11 1.05285e-24 8.40366e-36
3740 1 0.000635 0.00452641 -0.00381 -0.019656 4.13217e-17 7.70372e-34 2.16e-11 0 1.29287e-35
3826 1 0.000635 0.00562626 -0.004445 -0.019656 -1.44597e-16 -5.9629e-17 2.16e-11 5.26426e-25 3.74932e-35
3912 1 0.000635 0.00672611 -0.00381 -0.019656 8.26298e-17 0 2.16e-11 1.05285e-24 2.06859e-35
3997 1 0.000635 0.00782597 -0.004445 -0.019656 -3.38813e-21 -4.77061e-17 2.16e-11 1.05285e-24 5.17148e-36
4083 1 0.000635 0.00892582 -0.00381 -0.019656 -6.77626e-21 0 2.16e-11 1.05285e-24 0
4168 1 0.000635 0.0100257 -0.004445 -0.019656 2.54037e-08 4.40006e-08 -5.87569e-07 6.57799e-12 6.01185e-35
4254 1 0.000635 0.0111255 -0.00381 -0.019656 1.70863e-07 -4.63906e-08 -5.28815e-06 2.69399e-10 4.65433e-35
4338 1 0.000635 0.0122254 -0.004445 -0.019656 0.000165788 -0.000291528 5.77941e-05 3.27755e-09 4.77531e-10
4423 1 0.000635 0.0132869 -0.00380853 -0.0193634 -2.13478e-10 3.45853e-10 3.56471e-10 2.46209e-09 1.18704e-10
4507 1 0.000635 0.0142931 -0.00444217 -0.0189169 1.96708e-10 6.89168e-10 -8.29594e-10 3.90015e-09 1.34473e-11
2281 1 0.000635 -0.0139679 -0.00317286 -0.018748 -3.06546e-09 2.7067e-10 -5.16223e-09 1.7769e-10 2.28089e-11
2366 1 0.000635 -0.0130056 -0.00253838 -0.0192811 -1.27039e-09 7.27537e-11 -2.76782e-09 5.26562e-10 6.9893e-11
2450 1 0.000635 -0.0119714 -0.003175 -0.019656 4.12732e-05 7.78146e-05 -5.27429e-06 5.42106e-10 6.05742e-11
2535 1 0.000635 -0.0108715 -0.00254 -0.019656 -2.82243e-07 -2.37309e-08 -6.63273e-06 4.28379e-10 6.33506e-35
2620 1 0.000635 -0.00977167 -0.003175 -0.019656 -1.3427e-16 4.1748e-17 2.16e-11 5.26426e-25 5.81792e-35
2706 1 0.000635 -0.00867182 -0.00254 -0.019656 -7.2301e-17 -5.97417e-18 2.16e-11 0 1.61609e-35
2791 1 0.000635 -0.00757197 -0.003175 -0.019656 1.44602e-16 4.77053e-17 2.16e-11 5.26426e-25 3.55539e-35
2877 1 0.000635 -0.00647211 -0.00254 -0.019656 -1.44605e-16 -1.19365e-17 2.16e-11 0 3.23218e-35
2962 1 0.000635 -0.00537226 -0.003175 -0.019656 1.44604e-16 4.7707e-17 2.16e-11 0 3.55539e-35
3049 1 0.000635 -0.00427241 -0.00254 -0.019656 -1.03284e-16 -1.19373e-17 2.16e-11 5.26426e-25 1.93931e-35
3135 1 0.000635 -0.00317256 -0.003175 -0.019656 3.09963e-17 4.17472e-17 2.16e-11 1.05285e-24 6.46435e-36
3222 1 0.000635 -0.0020727 -0.00254 -0.019656 0 -1.43996e-20 2.16e-11 0 0
3308 1 0.000635 -0.000972852 -0.003175 -0.019656 0 3.57823e-17 2.16e-11 1.05285e-24 3.23218e-36
3395 1 0.000635 0.000127 -0.00254 -0.019656 0 -1.35525e-20 2.16e-11 0 0
3481 1 0.000635 0.00122685 -0.003175 -0.019656 0 3.57823e-17 2.16e-11 1.05285e-24 3.23218e-36
3568 1 0.000635 0.0023267 -0.00254 -0.019656 -6.77626e-21 -1.35525e-20 2.16e-11 0 0
3654 1 0.000635 0.00342656 -0.003175 -0.019656 3.09777e-17 4.17463e-17 2.16e-11 1.05285e-24 6.46435e-36
3741 1 0.000635 0.00452641 -0.00254 -0.019656 4.13115e-17 -1.19382e-17 2.16e-11 5.26426e-25 1.93931e-35
3827 1 0.000635 0.00562626 -0.003175 -0.019656 -1.44595e-16 4.77053e-17 2.16e-11 5.26426e-25 3.55539e-35
3913 1 0.000635 0.00672611 -0.00254 -0.019656 7.23095e-17 -5.97502e-18 2.16e-11 0 1.61609e-35
3998 1 0.000635 0.00782597 -0.003175 -0.019656 0 3.57823e-17 2.16e-11 1.05285e-24 3.23218e-36
4084 1 0.000635 0.00892582 -0.00254 -0.019656 -8.47033e-21 -1.27055e-20 2.16e-11 0 0
4169 1 0.000635 0.0100257 -0.003175 -0.019656 1.3427e-16 4.1748e-17 2.16e-11 5.26426e-25 5.81792e-35
4255 1 0.000635 0.0111255 -0.00254 -0.019656 1.75165e-07 -3.0187e-08 -5.277e-06 2.68222e-10 6.33506e-35
4339 1 0.000635 0.0122254 -0.003175 -0.019656 4.19817e-05 4.81686e-06 1.93521e-05 3.49432e-10 6.1414e-12
4424 1 0.000635 0.0132815 -0.00253937 -0.0193479 1.30832e-10 5.2758e-10 -7.60918e-10 3.86381e-10 1.53499e-11
4508 1 0.000635 0.0142987 -0.00317303 -0.0189269 -1.21015e-10 9.56777e-10 -5.68566e-10 2.72001e-09 1.23873e-10
2282 1 0.000635 -0.0139787 -0.00190395 -0.0187671 -2.01589e-09 1.51648e-10 -3.83542e-09 8.84723e-11 2.34345e-11
2367 1 0.000635 -0.0130052 -0.00126936 -0.01928 -7.48584e-10 9.46877e-12 -1.81977e-09 5.09152e-10 2.40503e-11
2451 1 0.000635 -0.0119714 -0.001905 -0.019656 7.56788e-06 3.23214e-05 8.03622e-06 5.04212e-10 9.61688e-12
2536 1 0.000635 -0.0108715 -0.00127 -0.019656 -2.84187e-07 -1.19246e-08 -6.62309e-06 4.27153e-10 6.33506e-35
2621 1 0.000635 -0.00977167 -0.001905 -0.019656 -1.44592e-16 -1.19229e-17 2.16e-11 5.26426e-25 6.39971e-35
2707 1 0.000635 -0.00867182 -0.00127 -0.019656 -7.2301e-17 5.96909e-18 2.16e-11 5.26426e-25 1.61609e-35
2792 1 0.000635 -0.00757197 -0.001905 -0.019656 1.44605e-16 -1.19229e-17 2.16e-11 0 3.29682e-35
2878 1 0.000635 -0.00647211 -0.00127 -0.019656 -1.44605e-16 1.19331e-17 2.16e-11 0 3.23218e-35
2963 1 0.000635 -0.00537226 -0.001905 -0.019656 1.44602e-16 -1.19246e-17 2.16e-11 0 3.29682e-35
3050 1 0.000635 -0.00427241 -0.00127 -0.019656 -1.13613e-16 5.96993e-18 2.16e-11 0 2.13324e-35
3136 1 0.000635 -0.00317256 -0.001905 -0.019656 4.13081e-17 -1.19229e-17 2.16e-11 0 5.81792e-36
3223 1 0.000635 -0.0020727 -0.00127 -0.019656 0 7.6233e-21 2.16e-11 0 0
3309 1 0.000635 -0.000972852 -0.001905 -0.019656 0 -1.19229e-17 2.16e-11 0 6.46435e-37
3396 1 0.000635 0.000127 -0.00127 -0.019656 0 6.77626e-21 2.16e-11 0 0
3482 1 0.000635 0.00122685 -0.001905 -0.019656 0 -1.19229e-17 2.16e-11 0 6.46435e-37
3569 1 0.000635 0.0023267 -0.00127 -0.019656 -6.77626e-21 6.77626e-21 2.16e-11 0 0
3655 1 0.000635 0.00342656 -0.001905 -0.019656 2.06608e-17 -1.19229e-17 2.16e-11 0 1.93931e-36
3742 1 0.000635 0.00452641 -0.00127 -0.019656 4.13149e-17 1.19331e-17 2.16e-11 5.26426e-25 1.93931e-35
3828 1 0.000635 0.00562626 -0.001905 -0.019656 -1.44599e-16 -1.19229e-17 2.16e-11 0 3.29682e-35
3914 1 0.000635 0.00672611 -0.00127 -0.019656 7.23078e-17 5.96909e-18 2.16e-11 5.26426e-25 1.61609e-35
3999 1 0.000635 0.00782597 -0.001905 -0.019656 -6.77626e-21 -1.19229e-17 2.16e-11 5.26426e-25 6.46435e-37
4085 1 0.000635 0.00892582 -0.00127 -0.019656 -6.77626e-21 6.77626e-21 2.16e-11 0 0
4170 1 0.000635 0.0100257 -0.001905 -0.019656 1.44599e-16 -1.19229e-17 2.16e-11 0 6.39971e-35
4256 1 0.000635 0.0111255 -0.00127 -0.019656 1.88606e-07 -8.00184e-10 -5.40177e-06 2.81236e-10 6.33506e-35
4340 1 0.000635 0.0122254 -0.001905 -0.019656 4.53384e-06 7.43705e-06 9.81158e-06 3.43156e-10 5.98075e-13
4425 1 0.000635 0.0132819 -0.00126977 -0.0193502 1.13182e-09 6.14286e-10 -3.29485e-09 3.77256e-10 3.67784e-12
4509 1 0.000635 0.0142853 -0.00190405 -0.0188984 -1.33106e-10 1.08386e-09 -3.60599e-10 1.29991e-10 1.26089e-11
2283 1 0.000635 -0.0139789 -0.000634687 -0.0187677 -1.55095e-09 9.01214e-11 -3.32932e-09 8.45277e-11 1.5525e-11
2452 1 0.000635 -0.0119714 -0.000635 -0.019656 -1.73483e-06 8.51425e-06 1.16269e-05 4.93969e-10 6.90288e-13
2622 1 0.000635 -0.00977167 -0.000635 -0.019656 -1.44599e-16 -8.47033e-21 2.16e-11 0 6.33506e-35
2793 1 0.000635 -0.00757197 -0.000635 -0.019656 1.44604e-16 -1.19339e-17 2.16e-11 5.26426e-25 3.23218e-35
2964 1 0.000635 -0.00537226 -0.000635 -0.019656 1.44604e-16 -1.19365e-17 2.16e-11 0 3.23218e-35
3137 1 0.000635 -0.00317256 -0.000635 -0.019656 4.13183e-17 -8.47033e-21 2.16e-11 0 5.17148e-36
3310 1 0.000635 -0.000972852 -0.000635 -0.019656 0 -8.47033e-21 2.16e-11 0 0
3483 1 0.000635 0.00122685 -0.000635 -0.019656 0 -8.47033e-21 2.16e-11 0 0
3656 1 0.000635 0.00342656 -0.000635 -0.019656 3.09811e-17 -5.97078e-18 2.16e-11 5.26426e-25 3.23218e-36
3829 1 0.000635 0.00562626 -0.000635 -0.019656 -1.44597e-16 -1.19339e-17 2.16e-11 5.26426e-25 3.23218e-35
4000 1 0.000635 0.00782597 -0.000635 -0.019656 0 -8.47033e-21 2.16e-11 0 0
4171 1 0.000635 0.0100257 -0.000635 -0.019656 1.44599e-16 -8.47033e-21 2.16e-11 0 6.33506e-35
4341 1 0.000635 0.0122254 -0.000635 -0.019656 4.04118e-07 2.6875e-06 8.19669e-06 3.55727e-10 6.97253e-14
4510 1 0.000635 0.0142811 -0.000634706 -0.0188904 1.608e-09 1.10699e-09 -3.64355e-09 1.15692e-10 1.06933e-11
2284 1 0.000635 -0.0139789 0.000634659 -0.0187676 -5.82589e-10 -1.55927e-11 -1.83612e-09 8.44474e-11 1.55223e-11
2368 1 0.000635 -0.0130052 -2.15915e-09 -0.01928 -1.31867e-09 -3.84499e-11 -3.34433e-09 5.06557e-10 1.33108e-11
2453 1 0.000635 -0.0119714 0.000635 -0.019656 -1.76791e-06 -8.6118e-06 1.16422e-05 4.94073e-10 7.06224e-13
2537 1 0.000635 -0.0108715 0 -0.019656 -2.86452e-07 -1.70352e-10 -6.63469e-06 4.28723e-10 6.33506e-35
2623 1 0.000635 -0.00977167 0.000635 -0.019656 -1.44599e-16 -3.38813e-21 2.16e-11 0 6.33506e-35
2708 1 0.000635 -0.00867182 0 -0.019656 -8.26247e-17 5.92923e-21 2.16e-11 0 2.06859e-35
2794 1 0.000635 -0.00757197 0.000635 -0.019656 1.44602e-16 -3.38813e-21 2.16e-11 0 3.23218e-35
2879 1 0.000635 -0.00647211 0 -0.019656 -1.44605e-16 5.0822e-21 2.16e-11 0 3.23218e-35
2965 1 0.000635 -0.00537226 0.000635 -0.019656 1.44602e-16 -3.38813e-21 2.16e-11 0 3.23218e-35
3051 1 0.000635 -0.00427241 0 -0.019656 -1.03282e-16 5.92923e-21 2.16e-11 0 1.68073e-35
3138 1 0.000635 -0.00317256 0.000635 -0.019656 4.13149e-17 -3.38813e-21 2.16e-11 0 5.17148e-36
3224 1 0.000635 -0.0020727 0 -0.019656 0 6.77626e-21 2.16e-11 0 0
3311 1 0.000635 -0.000972852 0.000635 -0.019656 0 -3.38813e-21 2.16e-11 0 0
3397 1 0.000635 0.000127 0 -0.019656 0 6.77626e-21 2.16e-11 0 0
3484 1 0.000635 0.00122685 0.000635 -0.019656 0 -3.38813e-21 2.16e-11 0 0
3570 1 0.000635 0.0023267 0 -0.019656 -3.38813e-21 5.0822e-21 2.16e-11 5.26426e-25 0
3657 1 0.000635 0.00342656 0.000635 -0.019656 2.06574e-17 -3.38813e-21 2.16e-11 0 1.29287e-36
3743 1 0.000635 0.00452641 0 -0.019656 4.13132e-17 5.92923e-21 2.16e-11 0 1.29287e-35
3830 1 0.000635 0.00562626 0.000635 -0.019656 -1.44595e-16 -3.38813e-21 2.16e-11 0 3.23218e-35
3915 1 0.000635 0.00672611 0 -0.019656 8.26315e-17 5.92923e-21 2.16e-11 0 2.06859e-35
4001 1 0.000635 0.00782597 0.000635 -0.019656 0 -3.38813e-21 2.16e-11 0 0
4086 1 0.000635 0.00892582 0 -0.019656 -6.77626e-21 6.77626e-21 2.16e-11 0 0
4172 1 0.000635 0.0100257 0.000635 -0.019656 1.44599e-16 -3.38813e-21 2.16e-11 0 6.33506e-35
4257 1 0.000635 0.0111255 0 -0.019656 1.89127e-07 -4.66862e-11 -5.39531e-06 2.80553e-10 6.33506e-35
4342 1 0.000635 0.0122254 0.000635 -0.019656 4.06598e-07 -2.83529e-06 8.1989e-06 3.55778e-10 7.71841e-14
4426 1 0.000635 0.0132823 -2.71867e-09 -0.0193516 1.29497e-09 6.26787e-10 -3.49543e-09 3.80993e-10 1.72094e-12
4511 1 0.000635 0.0142811 0.000634686 -0.0188904 1.48309e-09 1.12749e-09 -3.09625e-09 1.15664e-10 1.07149e-11
2285 1 0.000635 -0.0139786 0.00190392 -0.0187669 -1.06233e-09 -1.32793e-10 -2.97402e-09 8.82235e-11 2.34966e-11
2369 1 0.000635 -0.0130051 0.00126936 -0.0192798 -1.36607e-09 -7.77176e-11 -3.6275e-09 5.09333e-10 2.41376e-11
2454 1 0.000635 -0.0119714 0.001905 -0.019656 7.48459e-06 -3.24354e-05 8.07302e-06 5.04531e-10 9.68048e-12
2538 1 0.000635 -0.0108715 0.00127 -0.019656 -2.84423e-07 1.15718e-08 -6.62579e-06 4.27511e-10 6.33506e-35
2624 1 0.000635 -0.00977167 0.001905 -0.019656 -1.44595e-16 1.19221e-17 2.16e-11 0 6.39971e-35
2709 1 0.000635 -0.00867182 0.00127 -0.019656 -8.26264e-17 0 2.16e-11 0 2.06859e-35
2795 1 0.000635 -0.00757197 0.001905 -0.019656 1.44604e-16 1.19221e-17 2.16e-11 0 3.29682e-35
2880 1 0.000635 -0.00647211 0.00127 -0.019656 -1.44605e-16 0 2.16e-11 0 3.23218e-35
2966 1 0.000635 -0.00537226 0.001905 -0.019656 1.44604e-16 1.19238e-17 2.16e-11 0 3.29682e-35
3052 1 0.000635 -0.00427241 0.00127 -0.019656 -1.0328e-16 0 2.16e-11 0 1.68073e-35
3139 1 0.000635 -0.00317256 0.001905 -0.019656 4.13115e-17 1.19229e-17 2.16e-11 0 5.81792e-36
3225 1 0.000635 -0.0020727 0.00127 -0.019656 0 0 2.16e-11 0 0
3312 1 0.000635 -0.000972852 0.001905 -0.019656 0 1.19212e-17 2.16e-11 0 6.46435e-37
3398 1 0.000635 0.000127 0.00127 -0.019656 0 0 2.16e-11 0 0
3485 1 0.000635 0.00122685 0.001905 -0.019656 0 1.19212e-17 2.16e-11 0 6.46435e-37
3571 1 0.000635 0.0023267 0.00127 -0.019656 -6.77626e-21 0 2.16e-11 0 0
3658 1 0.000635 0.00342656 0.001905 -0.019656 2.06591e-17 1.19221e-17 2.16e-11 0 1.93931e-36