ITEM: TIMESTEP
160000
ITEM: NUMBER OF ATOMS
6793
ITEM: BOX BOUNDS ff ff ff
-8.9999999999999997e-02 8.9999999999999997e-02
-8.9999999999999997e-02 8.9999999999999997e-02
-4.0000000000000001e-02 4.0000000000000001e-02
ITEM: ATOMS id type radius x y z fx fy fz c_bendingE c_stretchingE
3293 1 0.000635 -0.000971523 -0.0222105 -0.00116088 -3.44023e-10 -8.46426e-10 -1.13139e-09 6.5711e-14 1.10897e-12
3466 1 0.000635 0.00122805 -0.0222109 -0.00116984 -7.53192e-10 -1.36399e-09 -9.32714e-10 1.92596e-13 1.40482e-12
3639 1 0.000635 0.00342764 -0.0222109 -0.00117178 -1.1448e-09 -9.1127e-10 1.34294e-08 1.85301e-12 1.9574e-12
2948 1 0.000635 -0.00537073 -0.0209428 -0.00122367 6.13423e-10 5.00999e-10 5.35145e-09 3.59439e-12 2.05587e-12
3034 1 0.000635 -0.00427098 -0.0215771 -0.00119505 3.21636e-10 4.96961e-11 1.83043e-09 1.3717e-12 1.91237e-12
3121 1 0.000635 -0.00317127 -0.0209437 -0.00124604 2.77989e-10 8.52384e-12 3.44222e-09 5.22318e-13 2.02236e-12
3207 1 0.000635 -0.00207141 -0.0215771 -0.00120362 -2.47907e-11 -5.29225e-10 -9.35899e-10 1.31208e-13 1.47877e-12
3294 1 0.000635 -0.000971726 -0.0209434 -0.00125017 -1.05168e-10 -3.46605e-10 4.71156e-09 6.78819e-14 1.65755e-12
3380 1 0.000635 0.000128151 -0.0215771 -0.00120994 -3.8909e-10 -5.67798e-10 5.42585e-09 7.5659e-14 1.42961e-12
3467 1 0.000635 0.00122779 -0.0209438 -0.00125961 -5.1165e-10 -1.19607e-09 -6.40013e-10 1.99548e-13 1.9587e-12
3553 1 0.000635 0.00232769 -0.0215776 -0.0012195 -8.10415e-10 -1.33557e-09 2.39941e-09 7.09108e-13 1.99255e-12
3640 1 0.000635 0.00342733 -0.020944 -0.00126386 -8.924e-10 -1.23565e-09 7.72839e-09 2.351e-12 2.56629e-12
3726 1 0.000635 0.0045272 -0.0215765 -0.00120423 -1.12041e-09 -1.73744e-09 5.64694e-09 4.58861e-12 2.19699e-12
3813 1 0.000635 0.00562626 -0.0209406 -0.00121373 -7.79151e-10 -2.92788e-09 -6.59723e-09 8.7078e-12 2.15295e-12
2778 1 0.000635 -0.00756773 -0.0196694 -0.00120361 1.05424e-09 6.99686e-10 4.38053e-09 8.21987e-12 1.16642e-12
2863 1 0.000635 -0.00646998 -0.0203071 -0.00123053 4.7203e-10 9.63774e-11 -3.03937e-09 6.63951e-12 1.59621e-12
2949 1 0.000635 -0.00537079 -0.0196755 -0.00130885 7.02365e-10 5.75918e-10 6.43929e-09 4.64546e-12 2.45572e-12
3035 1 0.000635 -0.0042711 -0.02031 -0.00128386 4.89969e-10 2.29025e-10 3.87284e-09 1.8469e-12 2.50767e-12
3122 1 0.000635 -0.00317141 -0.0196764 -0.00133277 4.15773e-10 3.13456e-10 7.07774e-09 6.7454e-13 2.74581e-12
3208 1 0.000635 -0.00207158 -0.0203099 -0.0012916 1.58086e-10 -7.14561e-10 -5.04207e-09 1.58923e-13 2.12819e-12
3295 1 0.000635 -0.000971915 -0.0196761 -0.0013358 8.74348e-11 -7.33431e-11 6.93963e-09 7.21312e-14 2.35108e-12
3381 1 0.000635 0.00012793 -0.0203099 -0.00129728 -2.31e-10 -8.48889e-10 -2.25183e-10 7.69594e-14 2.04108e-12
3468 1 0.000635 0.00122755 -0.0196765 -0.00134562 -3.03821e-10 -7.97589e-10 3.1582e-09 2.05304e-13 2.64085e-12
3554 1 0.000635 0.00232741 -0.0203105 -0.00130857 -6.06064e-10 -1.25575e-09 1.53603e-09 8.16681e-13 2.65698e-12
3641 1 0.000635 0.00342703 -0.0196769 -0.00135242 -6.95425e-10 -1.46648e-09 2.09855e-09 2.91383e-12 3.34726e-12
3727 1 0.000635 0.00452687 -0.0203096 -0.00129507 -9.63228e-10 -1.61186e-09 6.13829e-09 6.13302e-12 2.83485e-12
3814 1 0.000635 0.00562583 -0.0196735 -0.00130058 -9.42029e-10 -2.19026e-09 8.27292e-10 1.1459e-11 2.57722e-12
3899 1 0.000635 0.00672365 -0.0203023 -0.00118703 -1.37142e-09 -2.71015e-09 1.53001e-09 1.14718e-11 2.34505e-12
2779 1 0.000635 -0.00756705 -0.0184014 -0.00127228 4.43395e-10 3.11357e-10 -3.00675e-09 8.77654e-12 1.37625e-12
2864 1 0.000635 -0.00646985 -0.0190395 -0.00130913 7.15073e-10 4.41812e-10 1.834e-09 7.92612e-12 1.64182e-12
2950 1 0.000635 -0.00537083 -0.0184079 -0.00138972 6.07713e-10 2.61149e-10 1.20409e-09 5.54336e-12 2.79985e-12
3036 1 0.000635 -0.00427121 -0.0190426 -0.00136848 6.18483e-10 6.8883e-10 1.00854e-08 2.31688e-12 3.17552e-12
3123 1 0.000635 -0.00317154 -0.0184087 -0.00141518 4.71501e-10 1.35148e-10 3.2924e-09 7.97354e-13 3.55763e-12
3209 1 0.000635 -0.00207174 -0.0190424 -0.00137582 2.90713e-10 2.38317e-11 4.5737e-09 1.86175e-13 2.92726e-12
3296 1 0.000635 -0.000972092 -0.0184084 -0.00141776 2.16297e-10 3.4762e-10 1.19548e-08 7.41973e-14 3.14656e-12
3382 1 0.000635 0.000127724 -0.0190424 -0.00138096 -2.88564e-11 -3.20809e-10 5.85316e-09 7.68863e-14 2.77121e-12
3469 1 0.000635 0.00122733 -0.0184088 -0.00142759 -1.44145e-10 -7.68606e-10 1.09143e-09 2.05257e-13 3.37827e-12
3555 1 0.000635 0.00232715 -0.019043 -0.00139355 -4.43802e-10 -1.52955e-09 -5.1357e-09 9.05723e-13 3.43622e-12
3642 1 0.000635 0.00342676 -0.0184094 -0.00143647 -5.52209e-10 -1.28371e-09 1.51037e-09 3.36111e-12 4.15763e-12
3728 1 0.000635 0.00452656 -0.0190424 -0.00138245 -8.7144e-10 -1.52712e-09 4.58999e-09 7.8261e-12 3.54975e-12
3815 1 0.000635 0.00562544 -0.0184062 -0.00138418 -1.19274e-09 -1.53633e-09 8.24383e-09 1.39039e-11 2.7363e-12
3900 1 0.000635 0.00672263 -0.0190348 -0.00126406 -6.99712e-10 -2.7619e-09 -3.0835e-09 1.35707e-11 2.85715e-12
2694 1 0.000635 -0.00866079 -0.017761 -0.00119337 7.26944e-10 5.15742e-10 -9.83748e-10 6.2822e-12 2.6789e-12
2780 1 0.000635 -0.00756657 -0.0171334 -0.00134057 1.31183e-10 1.41088e-10 -6.15772e-09 9.05796e-12 1.76789e-12
2865 1 0.000635 -0.00646974 -0.0177717 -0.00138431 6.71337e-10 4.30161e-10 1.61004e-09 8.77298e-12 1.58037e-12
2951 1 0.000635 -0.0053709 -0.0171399 -0.00146602 6.34044e-10 2.86753e-10 2.16536e-09 5.95385e-12 2.90747e-12
3037 1 0.000635 -0.00427131 -0.0177748 -0.00144824 5.53615e-10 1.11595e-10 7.60402e-10 2.61888e-12 3.77393e-12
3124 1 0.000635 -0.00317168 -0.0171408 -0.00149291 4.43156e-10 -8.17339e-11 -7.70821e-10 8.48281e-13 4.31931e-12
3210 1 0.000635 -0.00207189 -0.0177746 -0.00145602 3.73523e-10 4.95469e-11 3.81292e-09 2.06739e-13 3.83829e-12
3297 1 0.000635 -0.000972264 -0.0171405 -0.00149604 2.6315e-10 2.32901e-10 8.59359e-09 8.43862e-14 3.92412e-12
3383 1 0.000635 0.000127534 -0.0177745 -0.00146091 8.6999e-11 -1.22181e-10 6.71892e-09 8.15895e-14 3.54346e-12
3470 1 0.000635 0.00122714 -0.0171408 -0.00150531 -5.32243e-11 -7.05082e-10 -9.65714e-10 2.12158e-13 4.00148e-12
3556 1 0.000635 0.00232693 -0.0177752 -0.00147382 -2.98709e-10 -1.27166e-09 -4.74968e-09 9.3311e-13 4.19627e-12
3643 1 0.000635 0.00342653 -0.0171414 -0.00151475 -3.7878e-10 -1.27374e-09 -2.26292e-09 3.45348e-12 4.67148e-12
3729 1 0.000635 0.00452629 -0.0177749 -0.00146502 -6.9227e-10 -1.47152e-09 1.84283e-09 8.96112e-12 4.00336e-12
3816 1 0.000635 0.00562517 -0.0171387 -0.00146431 -9.97423e-10 -1.49657e-09 5.16928e-09 1.50403e-11 2.37308e-12
3901 1 0.000635 0.00672174 -0.0177672 -0.00133933 -4.43053e-10 -2.51476e-09 -4.16679e-09 1.50609e-11 3.45803e-12
3987 1 0.000635 0.00781274 -0.0171251 -0.00124079 6.08674e-10 -3.36165e-09 -1.41684e-08 1.15722e-11 7.28181e-12
2695 1 0.000635 -0.00865993 -0.0164929 -0.00125739 5.98749e-10 4.3935e-10 -1.16334e-09 6.48795e-12 3.84547e-12
2866 1 0.000635 -0.00646977 -0.0165037 -0.00145722 6.49484e-10 3.29813e-10 8.08372e-10 9.02439e-12 1.33939e-12
3038 1 0.000635 -0.00427144 -0.0165066 -0.00152274 5.62761e-10 2.69959e-10 3.28283e-09 2.61739e-12 4.03739e-12
3211 1 0.000635 -0.00207205 -0.0165065 -0.00153214 3.66778e-10 -8.80845e-11 3.03321e-10 2.36606e-13 4.84146e-12
3384 1 0.000635 0.00012736 -0.0165064 -0.00153707 1.36269e-10 -2.40405e-10 2.49625e-09 1.23013e-13 4.23769e-12
3557 1 0.000635 0.00232675 -0.0165071 -0.00154868 -1.81436e-10 -8.5096e-10 -1.6194e-09 8.89122e-13 4.75525e-12
3730 1 0.000635 0.0045261 -0.0165069 -0.00154145 -5.1183e-10 -1.23363e-09 1.26637e-09 9.07089e-12 3.77476e-12
3902 1 0.000635 0.00672151 -0.0164999 -0.00141757 -9.73076e-10 -1.9249e-09 -3.33908e-11 1.61396e-11 3.93375e-12
2610 1 0.000635 -0.00975061 -0.0158512 -0.00115148 -3.26174e-10 1.15633e-10 -7.04889e-09 3.58366e-12 3.42067e-12
2696 1 0.000635 -0.00866063 -0.0152256 -0.00133423 5.80586e-10 4.82156e-10 4.93728e-10 7.21879e-12 4.69655e-12
2781 1 0.000635 -0.00756667 -0.0158656 -0.00141255 9.55091e-10 6.33195e-10 3.3262e-09 9.34911e-12 2.11981e-12
2867 1 0.000635 -0.00647007 -0.0152357 -0.00152902 3.82462e-10 2.63532e-11 -4.21594e-09 9.03913e-12 8.44457e-13
2952 1 0.000635 -0.00537104 -0.0158717 -0.00153756 5.09129e-10 1.14439e-10 -9.0091e-10 5.80148e-12 2.54551e-12
3039 1 0.000635 -0.00427161 -0.0152381 -0.00159131 3.8455e-10 -1.18553e-10 -3.42837e-09 2.4152e-12 3.67371e-12
3125 1 0.000635 -0.00317184 -0.0158725 -0.00156573 3.82949e-10 -4.3846e-10 -7.93901e-09 8.64878e-13 4.83453e-12
3212 1 0.000635 -0.00207224 -0.0152381 -0.0016041 2.79276e-10 -4.65659e-10 -7.1581e-09 4.2939e-13 6.19072e-12
3298 1 0.000635 -0.000972436 -0.0158723 -0.00157074 2.62661e-10 -9.94678e-11 1.90921e-09 2.41427e-13 4.43317e-12
3385 1 0.000635 0.000127204 -0.0152381 -0.00160898 1.59901e-10 -2.40055e-10 -2.22807e-11 3.56474e-13 4.80076e-12
3471 1 0.000635 0.00122699 -0.0158725 -0.00157852 3.01193e-11 -4.40949e-10 1.30451e-10 3.64256e-13 4.24276e-12
3558 1 0.000635 0.00232665 -0.0152385 -0.00161736 -1.05623e-10 -6.48598e-10 -2.69687e-09 9.26592e-13 5.19401e-12
3644 1 0.000635 0.00342639 -0.0158731 -0.00158616 -3.02548e-10 -4.6438e-10 7.49911e-09 3.17905e-12 4.55705e-12
3731 1 0.000635 0.00452604 -0.0152384 -0.0016103 -3.1509e-10 -1.28228e-09 -5.01449e-09 8.5277e-12 2.7797e-12
3817 1 0.000635 0.00562516 -0.0158709 -0.0015412 -3.78744e-10 -1.88435e-09 -6.85126e-09 1.52781e-11 1.46258e-12
3903 1 0.000635 0.00672241 -0.015233 -0.00150242 -1.17041e-09 -1.4726e-09 1.87146e-09 1.74572e-11 3.30139e-12
3988 1 0.000635 0.00781323 -0.0158583 -0.00132398 -1.2774e-09 -2.10407e-09 2.86598e-10 1.3354e-11 9.16747e-12
4074 1 0.000635 0.00890267 -0.0152155 -0.00121363 -6.07733e-10 -2.83937e-09 -5.32003e-09 8.0066e-12 6.73628e-12
2526 1 0.000635 -0.0108452 -0.0139438 -0.00114924 1.58427e-09 1.25418e-09 1.026e-08 2.62043e-12 2.46393e-12
2611 1 0.000635 -0.00975281 -0.0145847 -0.00124053 1.29406e-09 9.57504e-10 7.17636e-09 4.26831e-12 4.15917e-12
2697 1 0.000635 -0.00866312 -0.0139593 -0.00142604 1.39773e-09 1.03933e-09 9.71e-09 8.94939e-12 4.53966e-12
2782 1 0.000635 -0.00756764 -0.0145982 -0.00149079 9.08946e-10 5.95655e-10 4.41565e-09 1.01589e-11 1.91715e-12
2868 1 0.000635 -0.00647068 -0.0139676 -0.00159914 5.54383e-10 2.4684e-10 9.86732e-10 9.60214e-12 2.86372e-13
2953 1 0.000635 -0.0053713 -0.0146032 -0.00160391 3.58715e-10 -1.14999e-10 -4.43131e-09 5.54579e-12 1.70794e-12
3040 1 0.000635 -0.00427185 -0.0139693 -0.00165237 2.96745e-10 -1.42415e-10 -3.59033e-09 2.62119e-12 2.71615e-12
3126 1 0.000635 -0.00317204 -0.0146039 -0.00163307 3.27997e-10 -4.70017e-11 -1.03189e-09 1.46211e-12 4.92348e-12
3213 1 0.000635 -0.00207245 -0.0139694 -0.00167106 1.86959e-10 -1.805e-10 -3.18804e-09 5.37712e-12 9.42489e-12
3299 1 0.000635 -0.000972616 -0.0146038 -0.00164115 2.26072e-10 2.14728e-10 6.86626e-09 2.01262e-12 4.20273e-12
3386 1 0.000635 0.000127076 -0.0139694 -0.00167463 1.15711e-10 -2.67013e-10 -3.15653e-09 4.54449e-12 5.70192e-12
3472 1 0.000635 0.00122689 -0.014604 -0.00164625 4.51523e-11 -5.35963e-10 -5.90634e-09 1.91014e-12 3.75373e-12
3559 1 0.000635 0.00232663 -0.0139696 -0.00167861 -3.7699e-11 -2.73871e-10 -5.35021e-10 4.42964e-12 6.54424e-12
3645 1 0.000635 0.00342635 -0.0146043 -0.00164927 -1.75239e-10 -6.97165e-10 -2.27679e-09 3.19774e-12 3.82945e-12
3732 1 0.000635 0.00452612 -0.0139695 -0.00166885 -3.00741e-10 -7.74562e-10 -2.67267e-09 7.79602e-12 1.63516e-12
3818 1 0.000635 0.00562546 -0.0146029 -0.00161338 -6.80118e-10 -1.10874e-09 -3.27369e-11 1.57091e-11 4.81463e-13
3904 1 0.000635 0.00672403 -0.0139662 -0.00158914 -7.39228e-10 -1.35925e-09 -2.5727e-09 1.99647e-11 1.75072e-12
3989 1 0.000635 0.00781666 -0.0145932 -0.00142837 -1.32721e-09 -1.63874e-09 1.28125e-09 1.59667e-11 8.53242e-12
4075 1 0.000635 0.0089094 -0.0139524 -0.00134157 -2.35822e-09 -1.21831e-09 7.87599e-09 1.13888e-11 7.46125e-12
2527 1 0.000635 -0.0108513 -0.0126799 -0.00127074 1.58649e-09 1.40214e-09 1.23101e-08 3.56158e-12 3.7882e-12
2612 1 0.000635 -0.00975726 -0.0133197 -0.00134868 6.46992e-10 5.8883e-10 4.31282e-09 6.17696e-12 4.66052e-12
2698 1 0.000635 -0.00866654 -0.0126936 -0.00152573 1.41036e-09 1.14891e-09 1.27361e-08 1.2706e-11 3.05639e-12
2783 1 0.000635 -0.00756925 -0.013331 -0.00157261 7.32997e-10 5.12373e-10 4.17149e-09 1.23078e-11 1.09559e-12
2869 1 0.000635 -0.0064714 -0.0126991 -0.00166239 3.94264e-10 1.75041e-10 9.60666e-10 1.09289e-11 2.38889e-13
2954 1 0.000635 -0.00537168 -0.0133344 -0.00166273 3.59032e-10 4.81269e-11 -4.99079e-10 5.84671e-12 1.00504e-12
3041 1 0.000635 -0.00427215 -0.0127 -0.00170131 1.60538e-10 -1.0693e-10 -4.04425e-09 4.379e-12 1.71707e-12
3127 1 0.000635 -0.00317227 -0.0133348 -0.00169136 1.04974e-10 -3.23355e-10 -8.48588e-09 5.21698e-12 4.38287e-12
3214 1 0.000635 -0.0020727 -0.0127 -0.001728 3.98407e-06 -4.74571e-05 4.1904e-06 7.95131e-12 7.07971e-12
3300 1 0.000635 -0.000972796 -0.0133349 -0.00170116 1.00182e-10 2.3863e-10 7.77206e-09 5.06567e-12 3.50103e-12
3387 1 0.000635 0.000127 -0.0127 -0.001728 1.53961e-06 -3.58137e-05 3.21842e-06 6.40524e-12 3.96123e-12
3473 1 0.000635 0.00122686 -0.0133349 -0.00170294 1.78375e-11 -3.23148e-10 -6.34785e-09 4.51157e-12 2.81272e-12
3560 1 0.000635 0.0023267 -0.0127 -0.001728 -2.20872e-06 -3.7626e-05 3.11707e-06 5.87463e-12 4.48973e-12
3646 1 0.000635 0.0034264 -0.0133349 -0.00170037 -1.21076e-10 -2.41125e-10 1.53263e-09 4.53624e-12 2.78487e-12
3733 1 0.000635 0.00452627 -0.0127 -0.00171101 -1.42341e-10 -4.36487e-10 -2.50227e-09 6.66312e-12 8.23958e-13
3819 1 0.000635 0.00562588 -0.0133343 -0.00167494 -2.1628e-10 -1.17596e-09 -1.01309e-08 1.56082e-11 4.02886e-13
3905 1 0.000635 0.00672543 -0.0126987 -0.00166448 -5.74214e-10 -8.83668e-10 -1.55501e-09 2.23864e-11 1.30079e-12
3990 1 0.000635 0.0078211 -0.0133285 -0.00153978 -1.2632e-09 -1.21032e-09 2.4689e-09 2.07621e-11 5.26127e-12
4076 1 0.000635 0.00891679 -0.01269 -0.0014756 -1.07581e-09 -1.65883e-09 2.69205e-10 1.84083e-11 5.30129e-12
4161 1 0.000635 0.0100023 -0.0133118 -0.00125621 -1.79806e-09 -2.00267e-09 2.63351e-09 6.63256e-12 5.04621e-12
4247 1 0.000635 0.0110954 -0.0126714 -0.00117304 1.03392e-10 -3.92548e-09 -1.24727e-08 3.21274e-12 4.0933e-12
2443 1 0.000635 -0.0119459 -0.0120406 -0.00119798 3.64091e-10 5.52489e-10 3.00242e-09 2.23437e-12 3.03504e-12
2528 1 0.000635 -0.0108581 -0.0114168 -0.00139997 3.51523e-10 4.84295e-10 3.76088e-09 7.60801e-12 4.48093e-12
2613 1 0.000635 -0.00976265 -0.0120554 -0.00146564 1.27052e-09 1.12014e-09 1.09929e-08 1.08057e-11 3.87949e-12
2699 1 0.000635 -0.00866958 -0.0114273 -0.00161925 4.36015e-10 3.55807e-10 3.4296e-09 1.82636e-11 1.39779e-12
2784 1 0.000635 -0.00757081 -0.0120634 -0.0016483 5.00144e-10 3.38327e-10 2.69402e-09 1.55937e-11 5.78578e-13
2870 1 0.000635 -0.00647189 -0.0114299 -0.00170845 1.62934e-10 -4.96461e-12 -2.79376e-09 1.09594e-11 4.22246e-13
2955 1 0.000635 -0.00537203 -0.012065 -0.001707 2.67657e-10 1.52309e-10 3.9326e-09 6.34188e-12 7.73266e-13
3042 1 0.000635 -0.00427241 -0.01143 -0.001728 2.30847e-06 -1.13899e-05 6.60085e-07 3.24319e-12 7.66977e-13
3128 1 0.000635 -0.00317256 -0.012065 -0.001728 -1.66112e-06 -1.89398e-05 1.14359e-06 4.97617e-12 1.48657e-12
3215 1 0.000635 -0.0020727 -0.01143 -0.001728 -2.59227e-09 6.47094e-10 -7.37284e-07 5.81024e-12 5.17148e-36
3301 1 0.000635 -0.000972852 -0.012065 -0.001728 -4.27525e-11 -7.85055e-06 -1.97345e-07 5.57259e-12 2.80149e-13
3388 1 0.000635 0.000127 -0.01143 -0.001728 -6.73325e-10 0 -4.70455e-07 4.18481e-12 5.17148e-36
3474 1 0.000635 0.00122685 -0.012065 -0.001728 4.89193e-10 -7.4392e-06 -1.70573e-07 4.5748e-12 2.51575e-13
3561 1 0.000635 0.0023267 -0.01143 -0.001728 1.07464e-09 6.517e-10 -5.8523e-07 4.00855e-12 5.17148e-36
3647 1 0.000635 0.00342656 -0.012065 -0.001728 -3.57653e-08 -1.35468e-05 4.85328e-07 3.81469e-12 8.35934e-13
3734 1 0.000635 0.00452641 -0.01143 -0.001728 -3.4811e-06 -5.17191e-06 1.29531e-08 3.77956e-12 3.07058e-13
3820 1 0.000635 0.00562615 -0.0120649 -0.00171555 -2.66192e-10 -4.18581e-10 -9.19828e-10 1.26981e-11 4.15067e-13
3906 1 0.000635 0.00672602 -0.0114298 -0.00171325 -3.50631e-10 -4.11935e-10 -4.55121e-10 1.99845e-11 1.1051e-12
3991 1 0.000635 0.00782438 -0.0120626 -0.0016369 -1.07119e-09 -6.49079e-10 5.24357e-09 2.65735e-11 2.81707e-12
4077 1 0.000635 0.00892234 -0.0114258 -0.00159425 -5.11578e-10 -1.39616e-09 -2.29069e-09 2.78455e-11 2.48484e-12
4162 1 0.000635 0.0100115 -0.0120507 -0.00140368 2.83535e-11 -2.92948e-09 -9.93066e-09 1.3769e-11 4.48663e-12
4248 1 0.000635 0.0111055 -0.011411 -0.00132709 2.22072e-10 -3.45781e-09 -1.2591e-08 8.46536e-12 5.14924e-12
2444 1 0.000635 -0.0119536 -0.0107782 -0.00133587 3.22325e-10 5.9412e-10 3.9059e-09 4.68725e-12 4.75287e-12
2614 1 0.000635 -0.00976739 -0.0107904 -0.00157663 5.2724e-10 5.57286e-10 6.36458e-09 1.80077e-11 2.37229e-12
2785 1 0.000635 -0.0075717 -0.0107947 -0.00170383 1.64063e-10 1.23652e-10 5.53237e-10 1.65302e-11 6.19796e-13
2956 1 0.000635 -0.00537226 -0.010795 -0.001728 4.99233e-06 -4.67351e-06 1.88079e-07 4.43245e-12 4.09588e-13
3129 1 0.000635 -0.00317256 -0.010795 -0.001728 -2.91294e-09 6.57083e-10 -5.08294e-07 2.62149e-12 6.46435e-36
3302 1 0.000635 -0.000972852 -0.010795 -0.001728 -4.99627e-10 0 -2.36661e-07 1.05874e-12 5.17148e-36
3475 1 0.000635 0.00122685 -0.010795 -0.001728 -5.23544e-11 0 -2.20956e-07 9.22883e-13 5.17148e-36
3648 1 0.000635 0.00342656 -0.010795 -0.001728 1.35121e-09 -1.89549e-11 -3.53422e-07 1.34997e-12 1.0343e-35
3821 1 0.000635 0.00562626 -0.010795 -0.001728 -5.1628e-06 3.41947e-06 -3.85863e-07 7.30119e-12 1.62506e-13
3992 1 0.000635 0.00782578 -0.0107946 -0.00170271 -4.78034e-10 -3.66746e-10 3.644e-09 2.64945e-11 1.73052e-12
4163 1 0.000635 0.0100189 -0.0107881 -0.00153833 -6.22988e-10 -1.65476e-09 -3.37564e-09 2.5011e-11 3.26249e-12
4333 1 0.000635 0.0121994 -0.0107711 -0.00125048 -1.82478e-10 -3.48975e-09 -1.08728e-08 4.09828e-12 5.57892e-12
2276 1 0.000635 -0.0141488 -0.00950522 -0.0012476 6.11401e-10 1.05597e-09 6.35502e-09 4.01693e-12 3.85521e-12
2360 1 0.000635 -0.0130503 -0.0101408 -0.00128257 8.42962e-10 1.24342e-09 8.69561e-09 3.91847e-12 4.28587e-12
2445 1 0.000635 -0.0119611 -0.0095158 -0.00147283 9.78149e-10 1.25349e-09 1.06952e-08 1.07354e-11 5.26903e-12
2529 1 0.000635 -0.0108643 -0.0101531 -0.00152509 1.05239e-10 3.21876e-10 2.71426e-09 1.60971e-11 4.11688e-12
2615 1 0.000635 -0.00977047 -0.00952374 -0.00166754 3.49882e-10 4.2809e-10 6.68686e-09 2.63527e-11 2.243e-12
2700 1 0.000635 -0.00867133 -0.0101594 -0.00169104 2.23357e-10 2.2923e-10 3.66558e-09 2.16316e-11 8.4556e-13
2786 1 0.000635 -0.00757197 -0.009525 -0.001728 8.45764e-06 7.64191e-06 -2.19313e-07 1.31666e-11 4.69443e-13
2871 1 0.000635 -0.00647211 -0.01016 -0.001728 6.77278e-06 2.11292e-06 -1.17029e-07 7.83083e-12 2.92597e-13
2957 1 0.000635 -0.00537226 -0.009525 -0.001728 -1.59427e-09 -8.31914e-10 -3.98414e-07 1.50764e-12 3.74932e-35
3043 1 0.000635 -0.00427241 -0.01016 -0.001728 -2.29591e-09 8.45081e-11 -4.07793e-07 1.60911e-12 2.71503e-35
3130 1 0.000635 -0.00317256 -0.009525 -0.001728 2.0671e-17 0 2.16e-11 1.05285e-24 6.46435e-36
3216 1 0.000635 -0.0020727 -0.01016 -0.001728 -6.77626e-21 0 2.16e-11 0 5.17148e-36
3303 1 0.000635 -0.000972852 -0.009525 -0.001728 0 0 2.16e-11 0 5.17148e-36
3389 1 0.000635 0.000127 -0.01016 -0.001728 0 0 2.16e-11 0 5.17148e-36
3476 1 0.000635 0.00122685 -0.009525 -0.001728 0 0 2.16e-11 0 5.17148e-36
3562 1 0.000635 0.0023267 -0.01016 -0.001728 0 0 2.16e-11 0 5.17148e-36
3649 1 0.000635 0.00342656 -0.009525 -0.001728 4.13115e-17 0 2.16e-11 0 1.0343e-35
3735 1 0.000635 0.00452641 -0.01016 -0.001728 5.95653e-10 -1.1306e-09 -2.79886e-07 7.4406e-13 3.10289e-35
3822 1 0.000635 0.00562626 -0.009525 -0.001728 -2.54356e-10 -2.19409e-09 -3.32844e-07 1.16854e-12 3.74932e-35
3907 1 0.000635 0.00672611 -0.01016 -0.001728 -6.22644e-06 1.12597e-05 -5.60301e-07 1.31603e-11 5.03456e-13
3993 1 0.000635 0.00782597 -0.009525 -0.001728 -8.5955e-06 1.53029e-05 -5.41676e-07 2.07761e-11 9.3749e-13
4078 1 0.000635 0.00892518 -0.0101591 -0.00168244 -3.22964e-10 -7.29087e-10 -1.86728e-09 3.20894e-11 1.20942e-12
4164 1 0.000635 0.0100237 -0.00952291 -0.00164917 -6.97421e-10 -6.23056e-10 1.50159e-09 3.86501e-11 5.48661e-12
4249 1 0.000635 0.0111143 -0.0101495 -0.00147273 -4.08217e-10 -2.23111e-09 -6.29727e-09 2.0131e-11 5.75803e-12
4334 1 0.000635 0.0122096 -0.00951098 -0.00140699 4.02161e-10 -3.35792e-09 -1.37886e-08 1.09682e-11 7.02344e-12
4418 1 0.000635 0.0132946 -0.0101324 -0.00118403 3.67348e-10 -4.45147e-09 -1.61731e-08 2.94808e-12 4.94326e-12
2111 1 0.000635 -0.0163513 -0.00824155 -0.00124259 -1.58509e-10 1.55005e-11 -1.93635e-09 5.34479e-12 3.79382e-12
2193 1 0.000635 -0.0152494 -0.00887226 -0.00123545 5.24166e-10 1.09326e-09 6.43114e-09 4.34771e-12 4.03243e-12
2277 1 0.000635 -0.0141581 -0.00824483 -0.00140282 3.8624e-10 8.33652e-10 4.62979e-09 8.43055e-12 5.58744e-12
2361 1 0.000635 -0.013059 -0.00887955 -0.00143061 2.27799e-10 5.75157e-10 2.88921e-09 9.66599e-12 5.44774e-12
2446 1 0.000635 -0.0119672 -0.00825175 -0.00159424 2.65717e-10 4.91728e-10 3.36699e-09 2.08831e-11 2.15843e-12
2530 1 0.000635 -0.0108688 -0.00888762 -0.00163146 3.74101e-10 5.45225e-10 5.24498e-09 2.6574e-11 2.03864e-12
2616 1 0.000635 -0.00977167 -0.008255 -0.001728 -7.98064e-06 -1.10757e-05 3.36017e-06 2.71904e-11 6.66352e-13
2701 1 0.000635 -0.00867182 -0.00889 -0.001728 1.06864e-05 8.51964e-06 -1.98599e-07 2.01014e-11 7.20272e-13
2787 1 0.000635 -0.00757197 -0.008255 -0.001728 -2.00962e-10 -3.7458e-09 -7.46463e-07 6.23692e-12 4.0079e-35
2872 1 0.000635 -0.00647211 -0.00889 -0.001728 -8.62038e-10 -1.96787e-09 -4.98446e-07 2.57133e-12 3.74932e-35
2958 1 0.000635 -0.00537226 -0.008255 -0.001728 1.44607e-16 -7.15799e-17 2.16e-11 5.26426e-25 4.0079e-35
3044 1 0.000635 -0.00427241 -0.00889 -0.001728 -1.03289e-16 -4.76841e-17 2.16e-11 1.05285e-24 2.71503e-35
3131 1 0.000635 -0.00317256 -0.008255 -0.001728 3.09912e-17 -7.75431e-17 2.16e-11 5.26426e-25 1.87466e-35
3217 1 0.000635 -0.0020727 -0.00889 -0.001728 -3.38813e-21 -4.76866e-17 2.16e-11 0 5.17148e-36
3304 1 0.000635 -0.000972852 -0.008255 -0.001728 0 -7.15833e-17 2.16e-11 0 1.0343e-35
3390 1 0.000635 0.000127 -0.00889 -0.001728 0 -4.76866e-17 2.16e-11 0 5.17148e-36
3477 1 0.000635 0.00122685 -0.008255 -0.001728 0 -7.15833e-17 2.16e-11 0 1.0343e-35
3563 1 0.000635 0.0023267 -0.00889 -0.001728 0 -4.76858e-17 2.16e-11 0 5.17148e-36
3650 1 0.000635 0.00342656 -0.008255 -0.001728 4.13098e-17 -7.15825e-17 2.16e-11 0 1.0343e-35
3736 1 0.000635 0.00452641 -0.00889 -0.001728 4.13115e-17 -4.76841e-17 2.16e-11 0 3.10289e-35
3823 1 0.000635 0.00562626 -0.008255 -0.001728 -1.446e-16 -7.15791e-17 2.16e-11 0 4.0079e-35
3908 1 0.000635 0.00672611 -0.00889 -0.001728 -1.20835e-09 -3.53027e-09 -5.31931e-07 3.37283e-12 1.68073e-35
3994 1 0.000635 0.00782597 -0.008255 -0.001728 -2.06169e-09 -6.44303e-09 -9.18494e-07 1.00894e-11 1.0343e-35
4079 1 0.000635 0.00892582 -0.00889 -0.001728 -1.29061e-05 1.19438e-05 -4.46787e-07 3.08595e-11 1.10853e-12
4165 1 0.000635 0.0100257 -0.008255 -0.001728 2.48513e-05 -2.44972e-05 6.84616e-06 4.29634e-11 3.88885e-12
4250 1 0.000635 0.0111208 -0.00888586 -0.00159941 -5.69025e-10 -1.17232e-09 -1.22626e-09 3.94724e-11 6.07501e-12
4335 1 0.000635 0.0122186 -0.00824954 -0.00155251 -2.80514e-10 -1.95275e-09 -6.2128e-09 2.90374e-11 2.75232e-12
4419 1 0.000635 0.0133064 -0.00887393 -0.00135329 -7.5662e-10 -2.60384e-09 -5.4785e-09 9.82882e-12 5.93047e-12
4504 1 0.000635 0.0144045 -0.00823814 -0.00131001 -8.36668e-10 -2.97824e-09 -6.15336e-09 8.3048e-12 5.80259e-12
1947 1 0.000635 -0.0185553 -0.00698038 -0.00125821 1.02375e-12 6.14087e-10 3.84968e-09 8.50271e-12 1.40305e-12
2029 1 0.000635 -0.0174535 -0.00761148 -0.0012554 -3.57349e-10 -2.12513e-10 -4.42865e-09 7.07006e-12 2.48442e-12
2112 1 0.000635 -0.0163597 -0.00697969 -0.00138575 1.20655e-10 6.6025e-10 3.80124e-09 9.24038e-12 2.64966e-12
2194 1 0.000635 -0.0152586 -0.00761185 -0.00139081 2.41793e-10 7.58906e-10 4.19393e-09 8.37123e-12 4.53478e-12
2278 1 0.000635 -0.0141651 -0.00698136 -0.00153048 -3.42754e-11 3.47113e-10 7.09305e-10 1.18708e-11 2.40938e-12
2362 1 0.000635 -0.0130658 -0.00761612 -0.00155866 -4.11293e-10 -1.34339e-10 -4.91457e-09 1.4541e-11 2.78829e-12
2447 1 0.000635 -0.0119703 -0.00698425 -0.00167323 -1.45246e-10 5.93327e-11 -1.8122e-09 1.80877e-11 5.00468e-13
2531 1 0.000635 -0.0108711 -0.00761971 -0.0017022 -7.01853e-11 5.03925e-11 -2.10926e-09 2.23836e-11 1.1546e-12
2617 1 0.000635 -0.00977167 -0.006985 -0.001728 1.0483e-05 6.0513e-06 -1.2081e-06 1.67811e-11 6.68612e-13
2702 1 0.000635 -0.00867182 -0.00762 -0.001728 -1.32772e-09 -5.20379e-09 -1.17731e-06 1.57259e-11 2.9736e-35
2788 1 0.000635 -0.00757197 -0.006985 -0.001728 1.44605e-16 -2.38958e-17 2.16e-11 0 4.0079e-35
2873 1 0.000635 -0.00647211 -0.00762 -0.001728 -1.44609e-16 2.38967e-17 2.16e-11 0 4.0079e-35
2959 1 0.000635 -0.00537226 -0.006985 -0.001728 1.44605e-16 -2.38958e-17 2.16e-11 0 4.0079e-35
3045 1 0.000635 -0.00427241 -0.00762 -0.001728 -1.13623e-16 2.98573e-17 2.16e-11 0 2.90896e-35
3132 1 0.000635 -0.00317256 -0.006985 -0.001728 3.09912e-17 -2.98573e-17 2.16e-11 0 1.87466e-35
3218 1 0.000635 -0.0020727 -0.00762 -0.001728 -1.69407e-21 2.38958e-17 2.16e-11 0 1.0343e-35
3305 1 0.000635 -0.000972852 -0.006985 -0.001728 0 -2.38967e-17 2.16e-11 0 1.0343e-35
3391 1 0.000635 0.000127 -0.00762 -0.001728 0 2.38967e-17 2.16e-11 0 1.0343e-35
3478 1 0.000635 0.00122685 -0.006985 -0.001728 0 -2.38967e-17 2.16e-11 0 1.0343e-35
3564 1 0.000635 0.0023267 -0.00762 -0.001728 0 2.38967e-17 2.16e-11 0 1.0343e-35
3651 1 0.000635 0.00342656 -0.006985 -0.001728 4.13081e-17 -2.38967e-17 2.16e-11 0 1.0343e-35
3737 1 0.000635 0.00452641 -0.00762 -0.001728 4.13217e-17 2.38958e-17 2.16e-11 0 2.06859e-35
3824 1 0.000635 0.00562626 -0.006985 -0.001728 -1.44599e-16 -2.3895e-17 2.16e-11 0 4.0079e-35
3909 1 0.000635 0.00672611 -0.00762 -0.001728 6.19757e-17 2.38958e-17 2.16e-11 0 2.9736e-35
3995 1 0.000635 0.00782597 -0.006985 -0.001728 -6.77626e-21 -2.38967e-17 2.16e-11 0 1.0343e-35
4080 1 0.000635 0.00892582 -0.00762 -0.001728 2.51322e-10 -9.24568e-09 -1.53559e-06 2.74104e-11 1.0343e-35
4166 1 0.000635 0.0100257 -0.006985 -0.001728 -1.40589e-05 8.11388e-06 -1.64848e-06 2.79862e-11 1.20381e-12
4251 1 0.000635 0.0111249 -0.00761953 -0.00169277 -1.55025e-10 -6.29348e-10 -1.77708e-09 3.36456e-11 2.41042e-12
4336 1 0.000635 0.0122235 -0.00698371 -0.00165423 -4.01421e-10 -1.06519e-09 -1.8553e-09 2.75278e-11 6.35598e-13
4420 1 0.000635 0.0133164 -0.00761329 -0.00150594 -5.83052e-10 -2.07963e-09 -4.62694e-09 1.92076e-11 3.67187e-12
4505 1 0.000635 0.0144148 -0.00697782 -0.00146553 -1.19451e-09 -1.86369e-09 -4.09996e-10 1.51136e-11 3.93798e-12
4588 1 0.000635 0.0155038 -0.00760389 -0.00127906 -1.25804e-09 -2.78821e-09 -3.78237e-09 7.6086e-12 5.44053e-12
4671 1 0.000635 0.0166043 -0.00697109 -0.00125949 -1.5425e-09 -2.73775e-09 -3.60323e-09 7.92463e-12 4.3745e-12
1786 1 0.000635 -0.020756 -0.00571396 -0.00120663 -6.95147e-10 -1.0635e-10 -4.63076e-09 6.36921e-12 1.2783e-12
1866 1 0.000635 -0.0196562 -0.00634774 -0.00124226 -2.40528e-10 3.17132e-10 1.50849e-09 8.24136e-12 1.17761e-12
1948 1 0.000635 -0.0185607 -0.00571352 -0.00134685 -4.22849e-10 1.55192e-10 -2.05719e-09 8.58291e-12 1.61971e-12
2030 1 0.000635 -0.0174605 -0.00634707 -0.00137394 4.86481e-12 5.31515e-10 3.72924e-09 9.68725e-12 1.63095e-12
2113 1 0.000635 -0.016365 -0.00571334 -0.00148036 -3.38957e-10 1.67065e-10 -2.80692e-09 1.02035e-11 1.91827e-12
2195 1 0.000635 -0.015265 -0.00634731 -0.00150722 -2.67186e-10 2.09761e-10 -1.79866e-09 1.09172e-11 1.83778e-12
2279 1 0.000635 -0.0141688 -0.00571387 -0.00160811 1.78509e-10 4.65794e-10 4.62127e-09 1.04585e-11 1.25555e-12
2363 1 0.000635 -0.0130695 -0.00634892 -0.00164183 -9.99735e-11 1.7835e-10 -1.23336e-10 1.4491e-11 1.75247e-13
2448 1 0.000635 -0.0119713 -0.00571483 -0.00171002 1.79066e-11 9.44854e-11 1.37465e-09 1.13773e-11 4.93199e-13
2532 1 0.000635 -0.0108715 -0.00635 -0.001728 3.43923e-08 7.98644e-06 4.975e-07 1.42924e-11 4.16495e-13
2618 1 0.000635 -0.00977167 -0.005715 -0.001728 4.93496e-10 -8.54761e-10 -4.8303e-07 4.41163e-12 6.85221e-35
2703 1 0.000635 -0.00867182 -0.00635 -0.001728 2.25376e-10 -3.90363e-10 -2.27565e-07 9.78924e-13 2.9736e-35
2789 1 0.000635 -0.00757197 -0.005715 -0.001728 1.44602e-16 4.76832e-17 2.16e-11 0 3.74932e-35
2874 1 0.000635 -0.00647211 -0.00635 -0.001728 -1.44609e-16 7.15816e-17 2.16e-11 0 4.0079e-35
2960 1 0.000635 -0.00537226 -0.005715 -0.001728 1.44604e-16 4.76841e-17 2.16e-11 5.26426e-25 3.74932e-35
3046 1 0.000635 -0.00427241 -0.00635 -0.001728 -1.13621e-16 7.75431e-17 2.16e-11 0 2.90896e-35
3133 1 0.000635 -0.00317256 -0.005715 -0.001728 2.0671e-17 4.76858e-17 2.16e-11 5.26426e-25 6.46435e-36
3219 1 0.000635 -0.0020727 -0.00635 -0.001728 -5.0822e-21 7.15842e-17 2.16e-11 0 1.0343e-35
3306 1 0.000635 -0.000972852 -0.005715 -0.001728 0 4.76866e-17 2.16e-11 0 5.17148e-36
3392 1 0.000635 0.000127 -0.00635 -0.001728 0 7.1585e-17 2.16e-11 0 1.0343e-35
3479 1 0.000635 0.00122685 -0.005715 -0.001728 0 4.76866e-17 2.16e-11 0 5.17148e-36
3565 1 0.000635 0.0023267 -0.00635 -0.001728 0 7.15842e-17 2.16e-11 0 1.0343e-35
3652 1 0.000635 0.00342656 -0.005715 -0.001728 4.13098e-17 4.76858e-17 2.16e-11 0 1.0343e-35
3738 1 0.000635 0.00452641 -0.00635 -0.001728 4.13183e-17 7.15816e-17 2.16e-11 0 2.06859e-35
3825 1 0.000635 0.00562626 -0.005715 -0.001728 -1.44597e-16 4.76841e-17 2.16e-11 0 3.74932e-35
3910 1 0.000635 0.00672611 -0.00635 -0.001728 6.19774e-17 7.15825e-17 2.16e-11 0 2.9736e-35
3996 1 0.000635 0.00782597 -0.005715 -0.001728 -6.77626e-21 4.76849e-17 2.16e-11 0 5.17148e-36
4081 1 0.000635 0.00892582 -0.00635 -0.001728 -3.88425e-10 -6.72772e-10 -3.10802e-07 1.82609e-12 1.0343e-35
4167 1 0.000635 0.0100257 -0.005715 -0.001728 -8.1749e-10 -1.41594e-09 -6.50657e-07 8.00775e-12 6.85221e-35
4252 1 0.000635 0.0111255 -0.00635 -0.001728 -1.44666e-06 4.68832e-06 7.82809e-07 2.39393e-11 3.20203e-13
4337 1 0.000635 0.0122251 -0.00571479 -0.00170577 -2.811e-10 -4.32474e-10 1.21156e-09 1.93762e-11 4.75728e-13