ITEM: TIMESTEP
580000
ITEM: NUMBER OF ATOMS
6793
ITEM: BOX BOUNDS ff ff ff
-8.9999999999999997e-02 8.9999999999999997e-02
-8.9999999999999997e-02 8.9999999999999997e-02
-4.0000000000000001e-02 4.0000000000000001e-02
ITEM: ATOMS id type radius x y z fx fy fz c_bendingE c_stretchingE
3385 1 0.000635 0.0001242 -0.0152275 -0.00602244 8.80483e-11 -6.55707e-10 -2.35366e-09 5.30203e-10 2.97979e-11
3471 1 0.000635 0.00121775 -0.0158489 -0.00584825 -7.63436e-11 3.85998e-10 2.46729e-09 5.61984e-10 6.63246e-11
3558 1 0.000635 0.00231508 -0.0152102 -0.00585139 2.68678e-10 -3.47607e-10 -1.51334e-09 4.51648e-11 6.67586e-11
3213 1 0.000635 -0.00207083 -0.0139585 -0.00610264 1.44922e-10 1.18693e-10 5.40158e-10 8.14958e-10 1.39655e-10
3299 1 0.000635 -0.000973409 -0.0145949 -0.00609473 4.03285e-11 -9.3661e-11 3.68653e-10 7.92478e-10 6.39257e-11
3386 1 0.000635 0.000126808 -0.0139686 -0.00619328 -5.93989e-11 3.29234e-10 4.39922e-09 6.18288e-10 1.59082e-11
3472 1 0.000635 0.00122411 -0.0145954 -0.0060619 2.61382e-13 2.34169e-11 8.51319e-10 2.66196e-10 5.58986e-11
3559 1 0.000635 0.00232226 -0.0139577 -0.00607067 -7.59053e-11 1.26334e-10 9.91436e-10 8.13778e-11 1.42243e-10
3645 1 0.000635 0.00341255 -0.0145723 -0.00585379 1.26897e-10 -1.96523e-10 -8.54556e-10 1.36702e-11 3.56875e-11
3732 1 0.000635 0.00451326 -0.0139411 -0.00588818 5.50294e-11 -1.5302e-10 -8.67158e-10 1.20594e-11 2.23951e-11
3904 1 0.000635 0.00670963 -0.0139369 -0.00577182 5.90396e-11 -4.1999e-10 -1.98741e-09 4.32359e-11 2.17366e-11
3041 1 0.000635 -0.00426645 -0.0126872 -0.00608979 5.88532e-11 1.7357e-10 7.87697e-10 4.81396e-10 4.41538e-11
3127 1 0.000635 -0.00316798 -0.0133222 -0.00609395 -7.97654e-11 -8.91969e-11 -5.5873e-10 5.8135e-10 1.15728e-10
3214 1 0.000635 -0.0020727 -0.0127 -0.006264 -5.93813e-05 3.71366e-05 -1.84412e-06 6.84796e-10 3.51465e-11
3300 1 0.000635 -0.000973066 -0.0133349 -0.00624811 -2.12663e-11 -1.98297e-10 -2.34651e-09 4.99799e-10 2.27305e-11
3387 1 0.000635 0.000127 -0.0127 -0.006264 -3.20787e-06 -3.95078e-05 1.47827e-06 6.59672e-11 4.81998e-12
3473 1 0.000635 0.00122655 -0.0133342 -0.00621828 3.48549e-11 -1.14027e-10 -1.06401e-09 6.35709e-11 2.39381e-11
3560 1 0.000635 0.0023267 -0.0127 -0.006264 3.55958e-05 -0.000193292 4.07575e-05 1.08312e-10 1.21407e-10
3646 1 0.000635 0.00342064 -0.0133223 -0.00608341 3.40745e-13 -4.33422e-11 -1.77787e-10 1.01154e-10 6.52997e-11
3733 1 0.000635 0.00452189 -0.0126911 -0.00611396 6.07944e-11 -2.06211e-10 -1.36529e-09 7.72132e-11 9.02772e-12
3819 1 0.000635 0.00561577 -0.0133136 -0.00594106 9.308e-11 -3.79486e-10 -2.23333e-09 1.39449e-11 8.40106e-12
3905 1 0.000635 0.00671809 -0.0126855 -0.00599313 -6.95391e-11 -6.00203e-12 -5.16861e-11 4.52254e-11 1.53102e-11
3990 1 0.000635 0.00781194 -0.0133092 -0.00582745 -2.36682e-10 2.04787e-10 1.3552e-09 2.4893e-10 4.9309e-11
4076 1 0.000635 0.00890522 -0.0126651 -0.00578776 -2.64676e-10 1.11627e-10 1.47458e-09 4.41741e-10 2.90606e-11
2870 1 0.000635 -0.00646544 -0.0114191 -0.00609801 -8.7075e-11 -3.52578e-10 -1.52124e-09 3.83228e-10 1.45105e-11
2955 1 0.000635 -0.00536568 -0.0120529 -0.00609151 1.77498e-10 1.88236e-10 1.25619e-09 4.17736e-10 1.8603e-11
3042 1 0.000635 -0.00427241 -0.01143 -0.006264 -2.44148e-06 3.95444e-05 -4.22217e-06 3.34035e-10 7.82191e-12
3128 1 0.000635 -0.00317256 -0.012065 -0.006264 -2.3317e-05 6.01911e-05 -6.18646e-06 4.2862e-10 2.81257e-11
3215 1 0.000635 -0.0020727 -0.01143 -0.006264 1.91412e-08 -6.17543e-08 -2.96025e-06 8.33897e-11 5.17148e-36
3301 1 0.000635 -0.000972852 -0.012065 -0.006264 3.38521e-08 5.32218e-07 -2.84337e-06 7.4132e-11 1.73092e-15
3388 1 0.000635 0.000127 -0.01143 -0.006264 1.69415e-09 -1.69407e-21 -6.23471e-07 7.35208e-12 5.17148e-36
3474 1 0.000635 0.00122685 -0.012065 -0.006264 -2.10414e-08 -1.07993e-06 -1.86553e-06 6.97025e-11 4.52059e-15
3561 1 0.000635 0.0023267 -0.01143 -0.006264 1.52583e-08 -4.12954e-08 -3.02432e-06 8.82903e-11 5.17148e-36
3647 1 0.000635 0.00342656 -0.012065 -0.006264 2.63145e-05 -2.798e-05 1.0283e-05 8.89135e-11 5.10313e-12
3734 1 0.000635 0.00452641 -0.01143 -0.006264 1.13475e-05 -8.94416e-06 5.51545e-06 6.51875e-11 8.29459e-13
3820 1 0.000635 0.00562296 -0.0120592 -0.00614059 9.39567e-11 -3.22119e-10 -2.46815e-09 5.75094e-11 3.12607e-12
3906 1 0.000635 0.00672379 -0.0114266 -0.00616502 1.41665e-11 -1.11872e-10 -9.9098e-10 6.51011e-11 8.70556e-12
3991 1 0.000635 0.00781972 -0.0120552 -0.00603634 -6.28903e-11 1.84114e-11 3.50643e-10 3.64445e-10 4.30787e-11
4077 1 0.000635 0.00891643 -0.011415 -0.00600783 -1.51051e-10 1.1192e-10 1.6635e-09 3.51114e-10 1.08303e-11
2614 1 0.000635 -0.00973187 -0.0107292 -0.00574392 -4.46688e-10 -1.24219e-09 -2.08251e-09 3.72104e-10 7.36888e-11
2785 1 0.000635 -0.00756549 -0.0107857 -0.00610777 -7.07376e-11 -1.4267e-10 -7.59669e-10 3.65669e-10 2.29124e-11
2956 1 0.000635 -0.00537226 -0.010795 -0.006264 1.43444e-05 2.50354e-05 -3.18097e-06 2.92846e-10 2.65644e-12
3129 1 0.000635 -0.00317256 -0.010795 -0.006264 -8.70839e-09 -5.49167e-08 -3.02258e-06 8.68338e-11 6.46435e-36
3302 1 0.000635 -0.000972852 -0.010795 -0.006264 1.88569e-09 -1.69407e-21 -1.40079e-07 3.7101e-13 5.17148e-36
3475 1 0.000635 0.00122685 -0.010795 -0.006264 2.6405e-09 0 -4.03183e-07 3.0734e-12 5.17148e-36
3648 1 0.000635 0.00342656 -0.010795 -0.006264 3.72287e-08 -2.59567e-08 -2.6806e-06 7.0666e-11 1.0343e-35
3821 1 0.000635 0.00562626 -0.010795 -0.006264 6.61368e-06 -1.38276e-05 4.56389e-06 4.68621e-11 7.3675e-13
3992 1 0.000635 0.00782447 -0.0107933 -0.00618887 -2.79587e-11 9.89031e-13 3.4194e-10 2.25583e-10 2.90419e-11
4163 1 0.000635 0.00998834 -0.0107569 -0.0058343 1.98055e-10 -1.11089e-10 3.84057e-10 3.86054e-10 3.84048e-11
2445 1 0.000635 -0.0119409 -0.00948589 -0.00582844 5.90892e-10 7.23934e-10 1.76139e-09 5.89354e-10 1.49524e-10
2529 1 0.000635 -0.0108356 -0.0101053 -0.00578088 6.03477e-11 -1.50268e-10 -2.75522e-10 4.26555e-10 1.26707e-10
2615 1 0.000635 -0.00976567 -0.00951866 -0.00612911 3.35039e-10 2.75373e-10 2.33844e-09 3.90169e-10 6.13093e-11
2700 1 0.000635 -0.00866562 -0.0101523 -0.00611911 1.73527e-10 2.49905e-10 1.87975e-09 3.62772e-10 4.08598e-11
2786 1 0.000635 -0.00757197 -0.009525 -0.006264 4.3661e-05 7.63609e-06 -2.7356e-06 2.54307e-10 1.30508e-11
2871 1 0.000635 -0.00647211 -0.01016 -0.006264 2.94607e-05 1.52304e-05 -2.81458e-06 2.70846e-10 5.38528e-12
2957 1 0.000635 -0.00537226 -0.009525 -0.006264 -3.66162e-08 -3.70973e-08 -2.90019e-06 8.01095e-11 3.74932e-35
3043 1 0.000635 -0.00427241 -0.01016 -0.006264 -2.57201e-08 -4.65397e-08 -3.00164e-06 8.56787e-11 2.71503e-35
3130 1 0.000635 -0.00317256 -0.009525 -0.006264 2.0671e-17 0 2.16e-11 1.05285e-24 6.46435e-36
3216 1 0.000635 -0.0020727 -0.01016 -0.006264 -6.77626e-21 0 2.16e-11 0 5.17148e-36
3303 1 0.000635 -0.000972852 -0.009525 -0.006264 0 0 2.16e-11 0 5.17148e-36
3389 1 0.000635 0.000127 -0.01016 -0.006264 0 0 2.16e-11 0 5.17148e-36
3476 1 0.000635 0.00122685 -0.009525 -0.006264 0 0 2.16e-11 0 5.17148e-36
3562 1 0.000635 0.0023267 -0.01016 -0.006264 0 0 2.16e-11 0 5.17148e-36
3649 1 0.000635 0.00342656 -0.009525 -0.006264 4.13115e-17 0 2.16e-11 0 1.0343e-35
3735 1 0.000635 0.00452641 -0.01016 -0.006264 3.18809e-08 -1.38196e-08 -2.19603e-06 4.76579e-11 3.10289e-35
3822 1 0.000635 0.00562626 -0.009525 -0.006264 2.58444e-08 -5.62897e-09 -1.75077e-06 3.07524e-11 3.74932e-35
3907 1 0.000635 0.00672611 -0.01016 -0.006264 3.47092e-06 -2.59288e-05 3.59177e-06 4.73862e-11 2.6796e-12
3993 1 0.000635 0.00782597 -0.009525 -0.006264 -6.1288e-06 -2.4611e-05 9.68848e-07 1.32245e-10 3.81947e-12
4078 1 0.000635 0.00892427 -0.0101569 -0.00618058 -1.77224e-10 1.6429e-10 2.27754e-09 3.7684e-10 1.85865e-11
4164 1 0.000635 0.0100173 -0.00951447 -0.00609369 -9.74193e-11 1.13914e-10 9.78799e-10 3.91546e-10 4.74481e-11
2277 1 0.000635 -0.0141542 -0.00825046 -0.00592157 3.35926e-10 3.28396e-10 1.68635e-09 8.87133e-10 5.78538e-11
2361 1 0.000635 -0.013047 -0.00886754 -0.00587371 6.33015e-11 -4.34636e-10 3.47047e-10 1.13334e-09 1.03869e-10
2446 1 0.000635 -0.011967 -0.00825275 -0.00613311 -1.86654e-10 -4.65662e-10 -2.72545e-09 5.90425e-10 9.1955e-12
2530 1 0.000635 -0.0108661 -0.00888575 -0.00613668 -1.31958e-10 -6.31591e-10 -3.24034e-09 5.17082e-10 2.8667e-11
2616 1 0.000635 -0.00977167 -0.008255 -0.006264 1.92363e-05 -3.2794e-05 3.45411e-06 1.99244e-10 1.3004e-11
2701 1 0.000635 -0.00867182 -0.00889 -0.006264 5.55965e-05 -1.33886e-07 -2.66138e-06 2.32307e-10 2.3543e-11
2787 1 0.000635 -0.00757197 -0.008255 -0.006264 -4.61484e-08 -1.90366e-08 -2.56831e-06 6.29411e-11 4.0079e-35
2872 1 0.000635 -0.00647211 -0.00889 -0.006264 -4.29952e-08 -2.74404e-08 -2.74265e-06 7.1761e-11 3.74932e-35
2958 1 0.000635 -0.00537226 -0.008255 -0.006264 1.44607e-16 -7.15799e-17 2.16e-11 5.26426e-25 4.0079e-35
3044 1 0.000635 -0.00427241 -0.00889 -0.006264 -1.03289e-16 -4.76841e-17 2.16e-11 1.05285e-24 2.71503e-35
3131 1 0.000635 -0.00317256 -0.008255 -0.006264 3.09912e-17 -7.75431e-17 2.16e-11 5.26426e-25 1.87466e-35
3217 1 0.000635 -0.0020727 -0.00889 -0.006264 -3.38813e-21 -4.76866e-17 2.16e-11 0 5.17148e-36
3304 1 0.000635 -0.000972852 -0.008255 -0.006264 0 -7.15833e-17 2.16e-11 0 1.0343e-35
3390 1 0.000635 0.000127 -0.00889 -0.006264 0 -4.76866e-17 2.16e-11 0 5.17148e-36
3477 1 0.000635 0.00122685 -0.008255 -0.006264 0 -7.15833e-17 2.16e-11 0 1.0343e-35
3563 1 0.000635 0.0023267 -0.00889 -0.006264 0 -4.76858e-17 2.16e-11 0 5.17148e-36
3650 1 0.000635 0.00342656 -0.008255 -0.006264 4.13098e-17 -7.15825e-17 2.16e-11 0 1.0343e-35
3736 1 0.000635 0.00452641 -0.00889 -0.006264 4.13115e-17 -4.76841e-17 2.16e-11 0 3.10289e-35
3823 1 0.000635 0.00562626 -0.008255 -0.006264 -1.446e-16 -7.15791e-17 2.16e-11 0 4.0079e-35
3908 1 0.000635 0.00672611 -0.00889 -0.006264 1.21816e-08 -1.43184e-08 -1.60842e-06 2.46678e-11 1.68073e-35
3994 1 0.000635 0.00782597 -0.008255 -0.006264 -8.57135e-09 -3.76497e-08 -2.16561e-06 5.12372e-11 1.0343e-35
4079 1 0.000635 0.00892582 -0.00889 -0.006264 -4.84456e-05 4.50366e-05 -9.00718e-06 2.73831e-10 1.59464e-11
4165 1 0.000635 0.0100257 -0.008255 -0.006264 0.000128261 -4.55233e-06 3.06359e-05 3.74439e-10 8.4053e-11
4250 1 0.000635 0.0110859 -0.00885586 -0.00590462 2.14675e-10 -6.22028e-11 -1.49971e-13 4.23086e-10 4.0776e-11
2278 1 0.000635 -0.0141549 -0.00698148 -0.00593715 1.81063e-10 3.07523e-10 1.53738e-09 7.73859e-10 7.93922e-11
2362 1 0.000635 -0.0130668 -0.00761789 -0.00609748 8.995e-10 5.15382e-10 7.52076e-09 5.90414e-10 1.91035e-11
2447 1 0.000635 -0.0119706 -0.00698475 -0.0062043 2.6305e-10 3.58441e-11 1.88379e-09 1.25658e-10 8.73702e-12
2531 1 0.000635 -0.0108714 -0.00762002 -0.00624375 -4.09721e-11 -2.11474e-10 -9.51634e-10 1.59138e-10 1.75045e-12
2617 1 0.000635 -0.00977167 -0.006985 -0.006264 -3.70938e-06 -2.11254e-06 -1.86346e-06 4.12002e-11 8.06669e-14
2702 1 0.000635 -0.00867182 -0.00762 -0.006264 -5.04148e-08 -7.26528e-09 -2.40056e-06 5.48945e-11 2.9736e-35
2788 1 0.000635 -0.00757197 -0.006985 -0.006264 1.44605e-16 -2.38958e-17 2.16e-11 0 4.0079e-35
2873 1 0.000635 -0.00647211 -0.00762 -0.006264 -1.44609e-16 2.38967e-17 2.16e-11 0 4.0079e-35
2959 1 0.000635 -0.00537226 -0.006985 -0.006264 1.44605e-16 -2.38958e-17 2.16e-11 0 4.0079e-35
3045 1 0.000635 -0.00427241 -0.00762 -0.006264 -1.13623e-16 2.98573e-17 2.16e-11 0 2.90896e-35
3132 1 0.000635 -0.00317256 -0.006985 -0.006264 3.09912e-17 -2.98573e-17 2.16e-11 0 1.87466e-35
3218 1 0.000635 -0.0020727 -0.00762 -0.006264 -1.69407e-21 2.38958e-17 2.16e-11 0 1.0343e-35
3305 1 0.000635 -0.000972852 -0.006985 -0.006264 0 -2.38967e-17 2.16e-11 0 1.0343e-35
3391 1 0.000635 0.000127 -0.00762 -0.006264 0 2.38967e-17 2.16e-11 0 1.0343e-35
3478 1 0.000635 0.00122685 -0.006985 -0.006264 0 -2.38967e-17 2.16e-11 0 1.0343e-35
3564 1 0.000635 0.0023267 -0.00762 -0.006264 0 2.38967e-17 2.16e-11 0 1.0343e-35
3651 1 0.000635 0.00342656 -0.006985 -0.006264 4.13081e-17 -2.38967e-17 2.16e-11 0 1.0343e-35
3737 1 0.000635 0.00452641 -0.00762 -0.006264 4.13217e-17 2.38958e-17 2.16e-11 0 2.06859e-35
3824 1 0.000635 0.00562626 -0.006985 -0.006264 -1.44599e-16 -2.3895e-17 2.16e-11 0 4.0079e-35
3909 1 0.000635 0.00672611 -0.00762 -0.006264 6.19757e-17 2.38958e-17 2.16e-11 0 2.9736e-35
3995 1 0.000635 0.00782597 -0.006985 -0.006264 -6.77626e-21 -2.38967e-17 2.16e-11 0 1.0343e-35
4080 1 0.000635 0.00892582 -0.00762 -0.006264 -2.92208e-08 -7.43193e-08 -3.90416e-06 2.04042e-10 1.0343e-35
4166 1 0.000635 0.0100257 -0.006985 -0.006264 -3.95859e-05 2.27339e-05 -7.03857e-06 3.10203e-10 9.62863e-12
4251 1 0.000635 0.0111228 -0.00761694 -0.00617649 -5.8576e-11 7.27392e-11 7.07879e-10 4.35361e-10 1.12748e-10
4336 1 0.000635 0.0122079 -0.00697053 -0.0060323 -2.14494e-10 2.43071e-10 1.37315e-09 4.65344e-10 4.85622e-11
2279 1 0.000635 -0.0141443 -0.00571263 -0.005895 3.88706e-10 1.68667e-10 1.63294e-09 3.42871e-11 3.88212e-11
2363 1 0.000635 -0.0130654 -0.00634849 -0.00610493 1.10805e-10 2.10398e-10 4.51468e-10 1.20751e-10 3.22912e-11
2448 1 0.000635 -0.0119709 -0.00571509 -0.00622985 -7.33349e-11 6.69823e-11 -4.51669e-10 5.42783e-11 1.68117e-11
2532 1 0.000635 -0.0108715 -0.00635 -0.006264 -2.84547e-05 -2.49944e-05 1.6241e-06 3.66118e-11 4.94889e-12
2618 1 0.000635 -0.00977167 -0.005715 -0.006264 -8.36368e-10 1.44863e-09 -5.26249e-07 5.23686e-12 6.85221e-35
2703 1 0.000635 -0.00867182 -0.00635 -0.006264 -3.14063e-10 5.43973e-10 -1.7853e-07 6.02514e-13 2.9736e-35
2789 1 0.000635 -0.00757197 -0.005715 -0.006264 1.44602e-16 4.76832e-17 2.16e-11 0 3.74932e-35
2874 1 0.000635 -0.00647211 -0.00635 -0.006264 -1.44609e-16 7.15816e-17 2.16e-11 0 4.0079e-35
2960 1 0.000635 -0.00537226 -0.005715 -0.006264 1.44604e-16 4.76841e-17 2.16e-11 5.26426e-25 3.74932e-35
3046 1 0.000635 -0.00427241 -0.00635 -0.006264 -1.13621e-16 7.75431e-17 2.16e-11 0 2.90896e-35
3133 1 0.000635 -0.00317256 -0.005715 -0.006264 2.0671e-17 4.76858e-17 2.16e-11 5.26426e-25 6.46435e-36
3219 1 0.000635 -0.0020727 -0.00635 -0.006264 -5.0822e-21 7.15842e-17 2.16e-11 0 1.0343e-35
3306 1 0.000635 -0.000972852 -0.005715 -0.006264 0 4.76866e-17 2.16e-11 0 5.17148e-36
3392 1 0.000635 0.000127 -0.00635 -0.006264 0 7.1585e-17 2.16e-11 0 1.0343e-35
3479 1 0.000635 0.00122685 -0.005715 -0.006264 0 4.76866e-17 2.16e-11 0 5.17148e-36
3565 1 0.000635 0.0023267 -0.00635 -0.006264 0 7.15842e-17 2.16e-11 0 1.0343e-35
3652 1 0.000635 0.00342656 -0.005715 -0.006264 4.13098e-17 4.76858e-17 2.16e-11 0 1.0343e-35
3738 1 0.000635 0.00452641 -0.00635 -0.006264 4.13183e-17 7.15816e-17 2.16e-11 0 2.06859e-35
3825 1 0.000635 0.00562626 -0.005715 -0.006264 -1.44597e-16 4.76841e-17 2.16e-11 0 3.74932e-35
3910 1 0.000635 0.00672611 -0.00635 -0.006264 6.19774e-17 7.15825e-17 2.16e-11 0 2.9736e-35
3996 1 0.000635 0.00782597 -0.005715 -0.006264 -6.77626e-21 4.76849e-17 2.16e-11 0 5.17148e-36
4081 1 0.000635 0.00892582 -0.00635 -0.006264 -5.74506e-09 -9.95074e-09 -7.72241e-07 1.12863e-11 1.0343e-35
4167 1 0.000635 0.0100257 -0.005715 -0.006264 -1.66578e-08 -2.88521e-08 -2.04517e-06 7.97363e-11 6.85221e-35
4252 1 0.000635 0.0111255 -0.00635 -0.006264 -8.0978e-05 1.23585e-05 -1.13566e-05 4.05349e-10 2.16954e-11
4337 1 0.000635 0.0122242 -0.00571525 -0.00623041 -8.87538e-11 8.0543e-11 6.14539e-10 4.89696e-10 3.47915e-11
4421 1 0.000635 0.0132684 -0.00630623 -0.00581589 -6.15153e-10 5.92315e-10 2.29905e-09 7.76878e-10 2.29279e-11
2364 1 0.000635 -0.0130611 -0.00507868 -0.00609638 -9.55173e-10 1.62151e-10 -5.79623e-09 7.74509e-11 6.91116e-11
2533 1 0.000635 -0.0108715 -0.00508 -0.006264 -5.34035e-06 -3.12088e-06 -1.83906e-06 6.48039e-11 1.6986e-13
2704 1 0.000635 -0.00867182 -0.00508 -0.006264 -6.19774e-17 -2.3845e-17 2.16e-11 0 1.42216e-35
2875 1 0.000635 -0.00647211 -0.00508 -0.006264 -1.44605e-16 -2.38442e-17 2.16e-11 0 3.49075e-35
3047 1 0.000635 -0.00427241 -0.00508 -0.006264 -1.03287e-16 -2.38433e-17 2.16e-11 1.57928e-24 2.45645e-35
3220 1 0.000635 -0.0020727 -0.00508 -0.006264 -3.38813e-21 -2.38442e-17 2.16e-11 0 2.58574e-36
3393 1 0.000635 0.000127 -0.00508 -0.006264 0 -2.38442e-17 2.16e-11 0 2.58574e-36
3566 1 0.000635 0.0023267 -0.00508 -0.006264 -3.38813e-21 -2.38459e-17 2.16e-11 0 2.58574e-36
3739 1 0.000635 0.00452641 -0.00508 -0.006264 4.13081e-17 -2.38433e-17 2.16e-11 5.26426e-25 2.84431e-35
3911 1 0.000635 0.00672611 -0.00508 -0.006264 6.19859e-17 -2.38442e-17 2.16e-11 0 1.42216e-35
4082 1 0.000635 0.00892582 -0.00508 -0.006264 -8.47033e-21 -2.3845e-17 2.16e-11 0 2.58574e-36
4253 1 0.000635 0.0111255 -0.00508 -0.006264 -1.92606e-05 1.10096e-05 -4.9734e-06 2.46648e-10 2.2633e-12
4422 1 0.000635 0.0133187 -0.00507849 -0.00613858 -2.29844e-11 -1.88733e-11 4.42235e-10 5.94401e-10 1.57702e-11
2280 1 0.000635 -0.0141349 -0.00444369 -0.00585847 -1.33301e-09 2.73501e-10 -6.79301e-09 2.16628e-11 1.96266e-11
2365 1 0.000635 -0.0130562 -0.00380951 -0.00607949 -2.4712e-10 7.06537e-11 -1.75515e-09 1.09395e-10 2.3188e-11
2449 1 0.000635 -0.0119714 -0.004445 -0.006264 -0.000113351 -5.62961e-05 2.49055e-05 1.0011e-10 5.06055e-11
2534 1 0.000635 -0.0108715 -0.00381 -0.006264 -5.15824e-08 -2.97708e-08 -3.09752e-06 9.14137e-11 4.65433e-35
2619 1 0.000635 -0.00977167 -0.004445 -0.006264 -1.32454e-09 2.29416e-09 -3.01109e-07 1.71408e-12 6.01185e-35
2705 1 0.000635 -0.00867182 -0.00381 -0.006264 -8.2623e-17 0 2.16e-11 1.05285e-24 2.06859e-35
2790 1 0.000635 -0.00757197 -0.004445 -0.006264 1.44602e-16 -5.96282e-17 2.16e-11 5.26426e-25 3.74932e-35
2876 1 0.000635 -0.00647211 -0.00381 -0.006264 -1.44605e-16 0 2.16e-11 0 3.23218e-35
2961 1 0.000635 -0.00537226 -0.004445 -0.006264 1.44604e-16 -5.9629e-17 2.16e-11 5.26426e-25 3.74932e-35
3048 1 0.000635 -0.00427241 -0.00381 -0.006264 -1.03291e-16 0 2.16e-11 0 1.68073e-35
3134 1 0.000635 -0.00317256 -0.004445 -0.006264 3.09963e-17 -5.36693e-17 2.16e-11 1.57928e-24 8.40366e-36
3221 1 0.000635 -0.0020727 -0.00381 -0.006264 -6.77626e-21 0 2.16e-11 2.10571e-24 0
3307 1 0.000635 -0.000972852 -0.004445 -0.006264 0 -4.77053e-17 2.16e-11 1.05285e-24 5.17148e-36
3394 1 0.000635 0.000127 -0.00381 -0.006264 0 0 2.16e-11 1.05285e-24 0
3480 1 0.000635 0.00122685 -0.004445 -0.006264 0 -4.77053e-17 2.16e-11 1.05285e-24 5.17148e-36
3567 1 0.000635 0.0023267 -0.00381 -0.006264 0 0 2.16e-11 2.10571e-24 0
3653 1 0.000635 0.00342656 -0.004445 -0.006264 3.09811e-17 -5.36701e-17 2.16e-11 1.05285e-24 8.40366e-36
3740 1 0.000635 0.00452641 -0.00381 -0.006264 4.13217e-17 7.70372e-34 2.16e-11 0 1.29287e-35
3826 1 0.000635 0.00562626 -0.004445 -0.006264 -1.44597e-16 -5.9629e-17 2.16e-11 5.26426e-25 3.74932e-35
3912 1 0.000635 0.00672611 -0.00381 -0.006264 8.26298e-17 0 2.16e-11 1.05285e-24 2.06859e-35
3997 1 0.000635 0.00782597 -0.004445 -0.006264 -3.38813e-21 -4.77061e-17 2.16e-11 1.05285e-24 5.17148e-36
4083 1 0.000635 0.00892582 -0.00381 -0.006264 -6.77626e-21 0 2.16e-11 1.05285e-24 0
4168 1 0.000635 0.0100257 -0.004445 -0.006264 3.44311e-09 5.96363e-09 -2.96348e-07 1.66105e-12 6.01185e-35
4254 1 0.000635 0.0111255 -0.00381 -0.006264 2.16623e-08 -7.8722e-09 -2.09155e-06 4.15848e-11 4.65433e-35
4338 1 0.000635 0.0122254 -0.004445 -0.006264 5.05535e-05 -2.82986e-07 3.0589e-06 4.8326e-10 2.77486e-11
4423 1 0.000635 0.0133221 -0.00380908 -0.00617004 -1.78893e-10 -5.23678e-11 1.85554e-09 3.11041e-10 5.12674e-11
4507 1 0.000635 0.014409 -0.00444268 -0.00599533 1.49256e-10 -2.05674e-10 -3.31247e-10 5.10869e-10 1.65197e-11
4591 1 0.000635 0.0154912 -0.00380816 -0.00579551 -4.33974e-10 -1.33462e-10 1.84748e-09 3.23976e-10 2.81173e-11
2281 1 0.000635 -0.0141296 -0.00317435 -0.00583886 7.17383e-10 7.31925e-11 2.39739e-09 1.1998e-11 9.38304e-12
2366 1 0.000635 -0.013056 -0.00253976 -0.00608013 -2.37152e-10 5.55814e-11 -1.5486e-09 1.12048e-10 4.87728e-12
2450 1 0.000635 -0.0119714 -0.003175 -0.006264 -2.74693e-05 3.64653e-06 1.00321e-05 1.09685e-10 2.53932e-12
2535 1 0.000635 -0.0108715 -0.00254 -0.006264 -6.44191e-08 -3.36323e-09 -3.23029e-06 9.92797e-11 6.33506e-35
2620 1 0.000635 -0.00977167 -0.003175 -0.006264 -1.3427e-16 4.1748e-17 2.16e-11 5.26426e-25 5.81792e-35
2706 1 0.000635 -0.00867182 -0.00254 -0.006264 -7.2301e-17 -5.97417e-18 2.16e-11 0 1.61609e-35
2791 1 0.000635 -0.00757197 -0.003175 -0.006264 1.44602e-16 4.77053e-17 2.16e-11 5.26426e-25 3.55539e-35
2877 1 0.000635 -0.00647211 -0.00254 -0.006264 -1.44605e-16 -1.19365e-17 2.16e-11 0 3.23218e-35
2962 1 0.000635 -0.00537226 -0.003175 -0.006264 1.44604e-16 4.7707e-17 2.16e-11 0 3.55539e-35
3049 1 0.000635 -0.00427241 -0.00254 -0.006264 -1.03284e-16 -1.19373e-17 2.16e-11 5.26426e-25 1.93931e-35
3135 1 0.000635 -0.00317256 -0.003175 -0.006264 3.09963e-17 4.17472e-17 2.16e-11 1.05285e-24 6.46435e-36
3222 1 0.000635 -0.0020727 -0.00254 -0.006264 0 -1.43996e-20 2.16e-11 0 0
3308 1 0.000635 -0.000972852 -0.003175 -0.006264 0 3.57823e-17 2.16e-11 1.05285e-24 3.23218e-36
3395 1 0.000635 0.000127 -0.00254 -0.006264 0 -1.35525e-20 2.16e-11 0 0
3481 1 0.000635 0.00122685 -0.003175 -0.006264 0 3.57823e-17 2.16e-11 1.05285e-24 3.23218e-36
3568 1 0.000635 0.0023267 -0.00254 -0.006264 -6.77626e-21 -1.35525e-20 2.16e-11 0 0
3654 1 0.000635 0.00342656 -0.003175 -0.006264 3.09777e-17 4.17463e-17 2.16e-11 1.05285e-24 6.46435e-36
3741 1 0.000635 0.00452641 -0.00254 -0.006264 4.13115e-17 -1.19382e-17 2.16e-11 5.26426e-25 1.93931e-35
3827 1 0.000635 0.00562626 -0.003175 -0.006264 -1.44595e-16 4.77053e-17 2.16e-11 5.26426e-25 3.55539e-35
3913 1 0.000635 0.00672611 -0.00254 -0.006264 7.23095e-17 -5.97502e-18 2.16e-11 0 1.61609e-35
3998 1 0.000635 0.00782597 -0.003175 -0.006264 0 3.57823e-17 2.16e-11 1.05285e-24 3.23218e-36
4084 1 0.000635 0.00892582 -0.00254 -0.006264 -8.47033e-21 -1.27055e-20 2.16e-11 0 0
4169 1 0.000635 0.0100257 -0.003175 -0.006264 1.3427e-16 4.1748e-17 2.16e-11 5.26426e-25 5.81792e-35
4255 1 0.000635 0.0111255 -0.00254 -0.006264 1.83106e-08 -1.99393e-08 -1.89442e-06 3.45284e-11 6.33506e-35
4339 1 0.000635 0.0122254 -0.003175 -0.006264 4.51093e-05 9.05991e-06 6.44487e-06 4.81719e-11 6.97059e-12
4424 1 0.000635 0.01332 -0.00253957 -0.00615223 1.57392e-11 -4.19824e-11 -2.12399e-10 5.82458e-11 1.39557e-11
4508 1 0.000635 0.0144119 -0.00317358 -0.00601212 3.58658e-11 -9.32034e-11 -2.22788e-10 4.09089e-10 6.08148e-11
4592 1 0.000635 0.0154925 -0.0025389 -0.00579979 1.38124e-11 -9.97928e-11 -2.43701e-10 1.30884e-10 3.81819e-11
2282 1 0.000635 -0.0141286 -0.00190467 -0.00583585 -3.90026e-10 4.05891e-11 -2.07309e-09 1.36893e-11 4.96101e-12
2367 1 0.000635 -0.0130563 -0.0012699 -0.00608217 7.8558e-12 2.40434e-11 -2.0556e-10 1.11618e-10 3.04368e-12
2451 1 0.000635 -0.0119714 -0.001905 -0.006264 -1.8081e-05 3.80634e-06 8.44154e-06 1.10208e-10 1.18965e-12
2536 1 0.000635 -0.0108715 -0.00127 -0.006264 -6.51568e-08 4.38866e-11 -3.21886e-06 9.85795e-11 6.33506e-35
2621 1 0.000635 -0.00977167 -0.001905 -0.006264 -1.44592e-16 -1.19229e-17 2.16e-11 5.26426e-25 6.39971e-35
2707 1 0.000635 -0.00867182 -0.00127 -0.006264 -7.2301e-17 5.96909e-18 2.16e-11 5.26426e-25 1.61609e-35
2792 1 0.000635 -0.00757197 -0.001905 -0.006264 1.44605e-16 -1.19229e-17 2.16e-11 0 3.29682e-35
2878 1 0.000635 -0.00647211 -0.00127 -0.006264 -1.44605e-16 1.19331e-17 2.16e-11 0 3.23218e-35
2963 1 0.000635 -0.00537226 -0.001905 -0.006264 1.44602e-16 -1.19246e-17 2.16e-11 0 3.29682e-35
3050 1 0.000635 -0.00427241 -0.00127 -0.006264 -1.13613e-16 5.96993e-18 2.16e-11 0 2.13324e-35
3136 1 0.000635 -0.00317256 -0.001905 -0.006264 4.13081e-17 -1.19229e-17 2.16e-11 0 5.81792e-36
3223 1 0.000635 -0.0020727 -0.00127 -0.006264 0 7.6233e-21 2.16e-11 0 0
3309 1 0.000635 -0.000972852 -0.001905 -0.006264 0 -1.19229e-17 2.16e-11 0 6.46435e-37
3396 1 0.000635 0.000127 -0.00127 -0.006264 0 6.77626e-21 2.16e-11 0 0
3482 1 0.000635 0.00122685 -0.001905 -0.006264 0 -1.19229e-17 2.16e-11 0 6.46435e-37
3569 1 0.000635 0.0023267 -0.00127 -0.006264 -6.77626e-21 6.77626e-21 2.16e-11 0 0
3655 1 0.000635 0.00342656 -0.001905 -0.006264 2.06608e-17 -1.19229e-17 2.16e-11 0 1.93931e-36
3742 1 0.000635 0.00452641 -0.00127 -0.006264 4.13149e-17 1.19331e-17 2.16e-11 5.26426e-25 1.93931e-35
3828 1 0.000635 0.00562626 -0.001905 -0.006264 -1.44599e-16 -1.19229e-17 2.16e-11 0 3.29682e-35
3914 1 0.000635 0.00672611 -0.00127 -0.006264 7.23078e-17 5.96909e-18 2.16e-11 5.26426e-25 1.61609e-35
3999 1 0.000635 0.00782597 -0.001905 -0.006264 -6.77626e-21 -1.19229e-17 2.16e-11 5.26426e-25 6.46435e-37
4085 1 0.000635 0.00892582 -0.00127 -0.006264 -6.77626e-21 6.77626e-21 2.16e-11 0 0
4170 1 0.000635 0.0100257 -0.001905 -0.006264 1.44599e-16 -1.19229e-17 2.16e-11 0 6.39971e-35
4256 1 0.000635 0.0111255 -0.00127 -0.006264 2.47221e-08 -8.79227e-09 -2.06762e-06 4.05948e-11 6.33506e-35
4340 1 0.000635 0.0122254 -0.001905 -0.006264 2.11337e-05 8.03649e-07 5.5988e-06 4.6164e-11 1.39135e-12
4425 1 0.000635 0.0133187 -0.00126984 -0.00614311 2.89225e-10 -1.51827e-11 -2.33671e-09 5.25502e-11 2.66337e-12
4509 1 0.000635 0.0144069 -0.00190444 -0.0059803 -2.61787e-10 -8.84244e-11 1.34485e-09 2.13053e-11 1.11616e-11
4593 1 0.000635 0.015487 -0.00126964 -0.00577005 2.89126e-11 -1.1877e-11 -5.75056e-10 9.91156e-12 7.19656e-12
2283 1 0.000635 -0.0141287 -0.000634897 -0.00583639 -5.90668e-11 1.96798e-11 -6.52824e-10 1.43305e-11 4.03761e-12
2368 1 0.000635 -0.0130565 -7.26234e-16 -0.00608284 -2.87744e-10 1.16327e-13 -1.72749e-09 1.11507e-10 2.77519e-12
2452 1 0.000635 -0.0119714 -0.000635 -0.006264 -1.75141e-05 1.2637e-06 8.20333e-06 1.10324e-10 1.00595e-12
2622 1 0.000635 -0.00977167 -0.000635 -0.006264 -1.44599e-16 -8.47033e-21 2.16e-11 0 6.33506e-35
2793 1 0.000635 -0.00757197 -0.000635 -0.006264 1.44604e-16 -1.19339e-17 2.16e-11 5.26426e-25 3.23218e-35
2964 1 0.000635 -0.00537226 -0.000635 -0.006264 1.44604e-16 -1.19365e-17 2.16e-11 0 3.23218e-35
3137 1 0.000635 -0.00317256 -0.000635 -0.006264 4.13183e-17 -8.47033e-21 2.16e-11 0 5.17148e-36
3310 1 0.000635 -0.000972852 -0.000635 -0.006264 0 -8.47033e-21 2.16e-11 0 0
3483 1 0.000635 0.00122685 -0.000635 -0.006264 0 -8.47033e-21 2.16e-11 0 0
3656 1 0.000635 0.00342656 -0.000635 -0.006264 3.09811e-17 -5.97078e-18 2.16e-11 5.26426e-25 3.23218e-36
3829 1 0.000635 0.00562626 -0.000635 -0.006264 -1.44597e-16 -1.19339e-17 2.16e-11 5.26426e-25 3.23218e-35
4000 1 0.000635 0.00782597 -0.000635 -0.006264 0 -8.47033e-21 2.16e-11 0 0
4171 1 0.000635 0.0100257 -0.000635 -0.006264 1.44599e-16 -8.47033e-21 2.16e-11 0 6.33506e-35
4341 1 0.000635 0.0122254 -0.000635 -0.006264 7.81905e-06 4.58853e-07 4.32287e-06 5.07838e-11 1.96161e-13
4510 1 0.000635 0.0144042 -0.00063486 -0.00596424 2.27363e-10 -1.82285e-11 -1.84192e-09 1.28931e-11 3.40803e-12
2284 1 0.000635 -0.0141287 0.000634897 -0.00583639 -5.89365e-11 -1.96735e-11 -6.5285e-10 1.43305e-11 4.03761e-12
2453 1 0.000635 -0.0119714 0.000635 -0.006264 -1.75141e-05 -1.2637e-06 8.20333e-06 1.10324e-10 1.00595e-12
2537 1 0.000635 -0.0108715 0 -0.006264 -6.48628e-08 -2.94683e-17 -3.20685e-06 9.78353e-11 6.33506e-35
2623 1 0.000635 -0.00977167 0.000635 -0.006264 -1.44599e-16 -3.38813e-21 2.16e-11 0 6.33506e-35
2708 1 0.000635 -0.00867182 0 -0.006264 -8.26247e-17 5.92923e-21 2.16e-11 0 2.06859e-35
2794 1 0.000635 -0.00757197 0.000635 -0.006264 1.44602e-16 -3.38813e-21 2.16e-11 0 3.23218e-35
2879 1 0.000635 -0.00647211 0 -0.006264 -1.44605e-16 5.0822e-21 2.16e-11 0 3.23218e-35
2965 1 0.000635 -0.00537226 0.000635 -0.006264 1.44602e-16 -3.38813e-21 2.16e-11 0 3.23218e-35
3051 1 0.000635 -0.00427241 0 -0.006264 -1.03282e-16 5.92923e-21 2.16e-11 0 1.68073e-35
3138 1 0.000635 -0.00317256 0.000635 -0.006264 4.13149e-17 -3.38813e-21 2.16e-11 0 5.17148e-36
3224 1 0.000635 -0.0020727 0 -0.006264 0 6.77626e-21 2.16e-11 0 0
3311 1 0.000635 -0.000972852 0.000635 -0.006264 0 -3.38813e-21 2.16e-11 0 0
3397 1 0.000635 0.000127 0 -0.006264 0 6.77626e-21 2.16e-11 0 0
3484 1 0.000635 0.00122685 0.000635 -0.006264 0 -3.38813e-21 2.16e-11 0 0
3570 1 0.000635 0.0023267 0 -0.006264 -3.38813e-21 5.0822e-21 2.16e-11 5.26426e-25 0
3657 1 0.000635 0.00342656 0.000635 -0.006264 2.06574e-17 -3.38813e-21 2.16e-11 0 1.29287e-36
3743 1 0.000635 0.00452641 0 -0.006264 4.13132e-17 5.92923e-21 2.16e-11 0 1.29287e-35
3830 1 0.000635 0.00562626 0.000635 -0.006264 -1.44595e-16 -3.38813e-21 2.16e-11 0 3.23218e-35
3915 1 0.000635 0.00672611 0 -0.006264 8.26315e-17 5.92923e-21 2.16e-11 0 2.06859e-35
4001 1 0.000635 0.00782597 0.000635 -0.006264 0 -3.38813e-21 2.16e-11 0 0
4086 1 0.000635 0.00892582 0 -0.006264 -6.77626e-21 6.77626e-21 2.16e-11 0 0
4172 1 0.000635 0.0100257 0.000635 -0.006264 1.44599e-16 -3.38813e-21 2.16e-11 0 6.33506e-35
4257 1 0.000635 0.0111255 0 -0.006264 2.73323e-08 -2.50129e-17 -2.13224e-06 4.30856e-11 6.33506e-35
4342 1 0.000635 0.0122254 0.000635 -0.006264 7.81905e-06 -4.58853e-07 4.32287e-06 5.07838e-11 1.96161e-13
4426 1 0.000635 0.0133185 2.9237e-16 -0.0061413 2.31636e-10 6.34348e-14 -1.90592e-09 5.43025e-11 1.19475e-12
4511 1 0.000635 0.0144042 0.00063486 -0.00596424 2.27191e-10 1.82112e-11 -1.84195e-09 1.28931e-11 3.40803e-12
4594 1 0.000635 0.0154848 7.27675e-16 -0.00575805 -8.60137e-10 -5.20936e-14 3.86702e-09 5.49711e-12 3.42686e-12
2285 1 0.000635 -0.0141286 0.00190467 -0.00583585 -3.90278e-10 -4.05748e-11 -2.07305e-09 1.36893e-11 4.96101e-12
2369 1 0.000635 -0.0130563 0.0012699 -0.00608217 7.89654e-12 -2.42472e-11 -2.05575e-10 1.11618e-10 3.04368e-12
2454 1 0.000635 -0.0119714 0.001905 -0.006264 -1.8081e-05 -3.80634e-06 8.44154e-06 1.10208e-10 1.18965e-12
2538 1 0.000635 -0.0108715 0.00127 -0.006264 -6.51568e-08 -4.38866e-11 -3.21886e-06 9.85795e-11 6.33506e-35
2624 1 0.000635 -0.00977167 0.001905 -0.006264 -1.44595e-16 1.19221e-17 2.16e-11 0 6.39971e-35
2709 1 0.000635 -0.00867182 0.00127 -0.006264 -8.26264e-17 0 2.16e-11 0 2.06859e-35
2795 1 0.000635 -0.00757197 0.001905 -0.006264 1.44604e-16 1.19221e-17 2.16e-11 0 3.29682e-35
2880 1 0.000635 -0.00647211 0.00127 -0.006264 -1.44605e-16 0 2.16e-11 0 3.23218e-35
2966 1 0.000635 -0.00537226 0.001905 -0.006264 1.44604e-16 1.19238e-17 2.16e-11 0 3.29682e-35
3052 1 0.000635 -0.00427241 0.00127 -0.006264 -1.0328e-16 0 2.16e-11 0 1.68073e-35
3139 1 0.000635 -0.00317256 0.001905 -0.006264 4.13115e-17 1.19229e-17 2.16e-11 0 5.81792e-36
3225 1 0.000635 -0.0020727 0.00127 -0.006264 0 0 2.16e-11 0 0