ITEM: TIMESTEP
940000
ITEM: NUMBER OF ATOMS
6793
ITEM: BOX BOUNDS ff ff ff
-8.9999999999999997e-02 8.9999999999999997e-02
-8.9999999999999997e-02 8.9999999999999997e-02
-4.0000000000000001e-02 4.0000000000000001e-02
ITEM: ATOMS id type radius x y z fx fy fz c_bendingE c_stretchingE
3384 1 0.000635 9.08792e-05 -0.0163916 -0.00933188 -2.60034e-11 -7.42047e-11 -1.21635e-10 1.74611e-09 1.69035e-11
3298 1 0.000635 -0.00092479 -0.0156377 -0.00922676 -5.45985e-10 -5.35101e-10 -6.09523e-10 2.79037e-09 6.42521e-11
3385 1 0.000635 0.000122301 -0.0152146 -0.00980766 -6.52103e-11 1.84524e-10 7.79189e-10 1.31995e-09 5.91637e-11
3471 1 0.000635 0.00120396 -0.0158049 -0.00950104 6.3442e-11 -2.63481e-10 -6.07002e-10 1.40762e-09 1.09773e-10
3558 1 0.000635 0.00229681 -0.015159 -0.00949944 1.19309e-10 -2.58451e-10 -5.88499e-10 9.25438e-11 7.24589e-11
3731 1 0.000635 0.00447482 -0.0151093 -0.00920745 -1.62203e-10 3.08108e-10 1.14677e-09 1.67473e-11 1.0795e-11
3040 1 0.000635 -0.00413467 -0.0137257 -0.00924185 -2.55809e-10 -5.61677e-10 -4.8178e-10 1.25096e-09 5.16905e-11
3213 1 0.000635 -0.00207083 -0.0139546 -0.00996292 -2.95219e-12 1.97964e-11 5.21374e-11 2.11049e-09 2.73695e-10
3299 1 0.000635 -0.000974168 -0.014591 -0.00994269 -3.98487e-11 -6.80602e-12 4.38009e-11 2.01524e-09 9.15391e-11
3386 1 0.000635 0.000126289 -0.0139665 -0.0100478 -4.09129e-11 1.59796e-10 1.07265e-09 1.53101e-09 2.99927e-11
3472 1 0.000635 0.00121951 -0.0145781 -0.00983676 -1.9011e-11 5.82158e-11 5.53728e-10 6.63474e-10 1.03078e-10
3559 1 0.000635 0.0023139 -0.0139347 -0.0098422 -4.75506e-11 1.15961e-10 6.52244e-10 2.19479e-10 2.35867e-10
3645 1 0.000635 0.0033935 -0.0145207 -0.00951973 -2.59223e-10 5.66476e-10 2.04524e-09 4.52341e-11 3.30126e-11
3732 1 0.000635 0.00449994 -0.0139067 -0.00961562 -1.23567e-10 1.80139e-10 7.39918e-10 5.64934e-11 3.54509e-11
3818 1 0.000635 0.00558375 -0.0145029 -0.0093255 -5.85456e-11 -7.70963e-11 -6.50349e-11 2.11699e-11 1.34785e-11
3904 1 0.000635 0.00669217 -0.013894 -0.00943736 -1.05741e-10 1.67651e-10 6.71959e-10 5.51636e-11 1.86289e-11
2954 1 0.000635 -0.00525405 -0.0131266 -0.00929257 -2.26969e-10 -4.34043e-10 -3.96054e-10 1.05657e-09 1.38772e-11
3041 1 0.000635 -0.00426487 -0.0126835 -0.00995478 4.60407e-11 7.04085e-11 3.91442e-10 1.24284e-09 9.826e-11
3127 1 0.000635 -0.00316693 -0.0133181 -0.00995787 1.28943e-12 3.00668e-11 1.53039e-10 1.5127e-09 2.57286e-10
3214 1 0.000635 -0.0020727 -0.0127 -0.010152 -8.48147e-05 2.62117e-05 -1.88439e-06 1.78417e-09 5.95908e-11
3300 1 0.000635 -0.000973229 -0.013335 -0.0101282 -1.83191e-11 -1.62798e-11 -2.11082e-10 1.32612e-09 2.99414e-11
3387 1 0.000635 0.000127 -0.0127 -0.010152 -2.88969e-05 -5.83751e-05 3.08474e-06 1.39396e-10 1.32582e-11
3473 1 0.000635 0.00122614 -0.0133338 -0.0100972 -2.5226e-11 8.04142e-11 7.55437e-10 1.57805e-10 6.96566e-11
3560 1 0.000635 0.0023267 -0.0127 -0.010152 5.28131e-05 -0.000253163 7.84881e-05 2.44105e-10 2.18984e-10
3646 1 0.000635 0.0034154 -0.0133092 -0.00990185 -6.3966e-11 9.15446e-11 4.66011e-10 2.21567e-10 1.56175e-10
3733 1 0.000635 0.00451942 -0.0126852 -0.00996195 -2.63274e-12 -7.70884e-11 -2.80448e-10 1.5894e-10 2.40365e-11
3819 1 0.000635 0.00560659 -0.0132916 -0.00970707 -7.30519e-11 3.47909e-11 2.61732e-10 5.07986e-11 1.62557e-11
3905 1 0.000635 0.00671119 -0.0126695 -0.00977589 -9.12754e-11 1.25833e-10 6.03039e-10 7.0362e-11 9.28389e-12
3990 1 0.000635 0.00779901 -0.0132796 -0.00953605 -4.79117e-11 -1.49605e-11 6.26611e-11 7.20573e-10 9.25533e-11
4076 1 0.000635 0.008898 -0.0126441 -0.00955845 -7.43328e-11 5.88161e-11 3.47617e-10 1.37717e-09 1.33872e-11
2784 1 0.000635 -0.00747588 -0.0118981 -0.0093678 -5.14054e-11 -9.45422e-11 -1.31712e-11 9.03034e-10 2.86026e-11
2870 1 0.000635 -0.00646309 -0.0114158 -0.00996164 -1.16605e-11 5.23496e-12 4.40733e-11 9.74805e-10 3.81919e-11
2869 1 0.000635 -0.00636671 -0.0125151 -0.00933239 4.44316e-11 1.28122e-10 1.92893e-10 9.51476e-10 6.1371e-12
2955 1 0.000635 -0.00536366 -0.0120494 -0.00995613 4.08725e-11 3.50738e-11 2.36753e-10 1.07599e-09 4.37731e-11
3042 1 0.000635 -0.00427241 -0.01143 -0.010152 -1.72372e-07 5.63061e-05 -1.0871e-05 9.09197e-10 1.50761e-11
3128 1 0.000635 -0.00317256 -0.012065 -0.010152 -3.3318e-05 8.51045e-05 -1.35958e-05 1.1716e-09 5.68275e-11
3215 1 0.000635 -0.0020727 -0.01143 -0.010152 2.97272e-08 -8.02276e-08 -3.40766e-06 1.10581e-10 5.17148e-36
3301 1 0.000635 -0.000972852 -0.012065 -0.010152 4.35344e-08 -1.25036e-05 -2.96752e-06 9.97272e-11 6.97588e-13
3388 1 0.000635 0.000127 -0.01143 -0.010152 6.27061e-09 -1.69407e-21 -9.17941e-07 1.59518e-11 5.17148e-36
3474 1 0.000635 0.00122685 -0.012065 -0.010152 -3.1981e-08 2.6589e-06 -3.38815e-06 1.61285e-10 3.68917e-14
3561 1 0.000635 0.0023267 -0.01143 -0.010152 7.1766e-08 -7.08098e-08 -4.40075e-06 1.96245e-10 5.17148e-36
3647 1 0.000635 0.00342656 -0.012065 -0.010152 4.24497e-05 2.42778e-05 3.18437e-06 1.84892e-10 2.18069e-11
3734 1 0.000635 0.00452641 -0.01143 -0.010152 1.99146e-05 1.19231e-05 3.4126e-06 1.33468e-10 4.90385e-12
3820 1 0.000635 0.00562133 -0.0120553 -0.00999655 -3.30591e-11 4.47327e-12 9.75672e-11 1.20439e-10 5.78969e-12
3906 1 0.000635 0.00672255 -0.0114235 -0.010023 -2.07105e-11 -1.33929e-11 -9.77305e-11 1.05366e-10 2.5713e-12
3991 1 0.000635 0.00781518 -0.0120455 -0.00984331 -7.49614e-11 3.47686e-11 2.85487e-10 1.06246e-09 7.58278e-11
4077 1 0.000635 0.00891471 -0.0114094 -0.00985372 -1.63997e-10 1.35305e-10 8.82057e-10 1.00133e-09 8.87154e-12
2614 1 0.000635 -0.00969257 -0.0106665 -0.00944752 -1.07641e-10 -1.87099e-10 -1.48319e-10 9.37507e-10 1.97991e-10
2699 1 0.000635 -0.00858377 -0.0112803 -0.00940403 -1.34156e-10 -2.76078e-10 -1.96243e-10 8.97986e-10 9.29801e-11
2785 1 0.000635 -0.00756288 -0.0107824 -0.00996973 1.46022e-11 5.74831e-11 3.16446e-10 9.12792e-10 5.81652e-11
2956 1 0.000635 -0.00537226 -0.010795 -0.010152 2.52442e-05 3.44421e-05 -8.92921e-06 7.70107e-10 6.18179e-12
3129 1 0.000635 -0.00317256 -0.010795 -0.010152 -9.08252e-09 -7.0403e-08 -3.44216e-06 1.128e-10 6.46435e-36
3302 1 0.000635 -0.000972852 -0.010795 -0.010152 3.32061e-09 -1.69407e-21 -2.10189e-07 8.35344e-13 5.17148e-36
3475 1 0.000635 0.00122685 -0.010795 -0.010152 6.31987e-09 -1.69407e-21 -4.82905e-07 4.41008e-12 5.17148e-36
3648 1 0.000635 0.00342656 -0.010795 -0.010152 7.21919e-08 -4.55221e-08 -3.57817e-06 1.28886e-10 1.0343e-35
3821 1 0.000635 0.00562626 -0.010795 -0.010152 1.1616e-05 2.90209e-06 3.55897e-06 9.14812e-11 1.2393e-12
3992 1 0.000635 0.00782381 -0.0107917 -0.0100533 -3.09632e-11 1.81187e-11 1.03129e-10 5.36974e-10 4.53801e-11
4163 1 0.000635 0.00996669 -0.0107362 -0.00962345 -1.37538e-10 7.29257e-11 4.70054e-10 1.14626e-09 2.11517e-11
2445 1 0.000635 -0.0119161 -0.00945696 -0.0095665 -8.42748e-11 -1.72042e-10 -1.9288e-10 1.46983e-09 2.9448e-10
2529 1 0.000635 -0.0108037 -0.0100598 -0.00950303 -4.65404e-11 -3.59046e-11 6.82068e-11 1.08e-09 2.8961e-10
2615 1 0.000635 -0.00976212 -0.00951471 -0.00998023 1.77278e-11 3.07908e-11 2.7548e-10 9.62866e-10 1.32727e-10
2700 1 0.000635 -0.00866271 -0.0101489 -0.00997755 3.53146e-11 6.15123e-11 4.18147e-10 8.91575e-10 9.08568e-11
2786 1 0.000635 -0.00757197 -0.009525 -0.010152 6.48166e-05 5.26746e-06 -6.64393e-06 5.99625e-10 3.05606e-11
2871 1 0.000635 -0.00647211 -0.01016 -0.010152 4.64051e-05 1.82032e-05 -7.60508e-06 6.79599e-10 1.38273e-11
2957 1 0.000635 -0.00537226 -0.009525 -0.010152 -4.77478e-08 -4.87112e-08 -3.3367e-06 1.061e-10 3.74932e-35
3043 1 0.000635 -0.00427241 -0.01016 -0.010152 -3.20655e-08 -5.97561e-08 -3.42036e-06 1.11406e-10 2.71503e-35
3130 1 0.000635 -0.00317256 -0.009525 -0.010152 2.0671e-17 0 2.16e-11 1.05285e-24 6.46435e-36
3216 1 0.000635 -0.0020727 -0.01016 -0.010152 -6.77626e-21 0 2.16e-11 0 5.17148e-36
3303 1 0.000635 -0.000972852 -0.009525 -0.010152 0 0 2.16e-11 0 5.17148e-36
3389 1 0.000635 0.000127 -0.01016 -0.010152 0 0 2.16e-11 0 5.17148e-36
3476 1 0.000635 0.00122685 -0.009525 -0.010152 0 0 2.16e-11 0 5.17148e-36
3562 1 0.000635 0.0023267 -0.01016 -0.010152 0 0 2.16e-11 0 5.17148e-36
3649 1 0.000635 0.00342656 -0.009525 -0.010152 4.13115e-17 0 2.16e-11 0 1.0343e-35
3735 1 0.000635 0.00452641 -0.01016 -0.010152 4.48731e-08 -2.91469e-08 -2.81377e-06 7.802e-11 3.10289e-35
3822 1 0.000635 0.00562626 -0.009525 -0.010152 3.55363e-08 -1.38494e-08 -2.24176e-06 5.00492e-11 3.74932e-35
3907 1 0.000635 0.00672611 -0.01016 -0.010152 1.45494e-05 -1.39592e-05 3.9442e-06 7.52324e-11 1.43503e-12
3993 1 0.000635 0.00782597 -0.009525 -0.010152 5.30646e-06 -3.08698e-05 2.00944e-06 2.23513e-10 3.67349e-12
4078 1 0.000635 0.00892423 -0.0101559 -0.0100573 2.78167e-11 -3.64557e-11 -2.02398e-10 1.02832e-09 4.5225e-11
4164 1 0.000635 0.0100139 -0.00950988 -0.00994873 -1.37576e-10 9.77965e-11 7.32654e-10 9.46209e-10 7.93845e-11
4249 1 0.000635 0.0109371 -0.0100148 -0.00923714 3.13659e-10 -2.39587e-10 -6.10114e-11 8.84559e-10 4.37199e-11
2277 1 0.000635 -0.0141409 -0.00824475 -0.00967393 -3.14412e-11 -4.08797e-11 -1.10099e-10 2.25231e-09 8.76941e-11
2361 1 0.000635 -0.0130282 -0.00885104 -0.00962024 -3.48652e-11 -1.93113e-11 -1.08233e-10 2.89574e-09 1.40978e-10
2446 1 0.000635 -0.0119631 -0.00825039 -0.00996205 5.69289e-11 7.40937e-11 5.43429e-10 1.55033e-09 1.30761e-11
2530 1 0.000635 -0.010862 -0.00888215 -0.00997729 2.87039e-11 6.06551e-11 3.67352e-10 1.30006e-09 4.59719e-11
2616 1 0.000635 -0.00977167 -0.008255 -0.010152 -3.38926e-06 -6.77377e-05 1.08964e-05 3.92462e-10 2.80907e-11
2701 1 0.000635 -0.00867182 -0.00889 -0.010152 8.13548e-05 -6.26344e-06 -6.15533e-06 5.05508e-10 5.34372e-11
2787 1 0.000635 -0.00757197 -0.008255 -0.010152 -6.18257e-08 -3.16001e-08 -3.12377e-06 9.28812e-11 4.0079e-35
2872 1 0.000635 -0.00647211 -0.00889 -0.010152 -5.7197e-08 -3.87008e-08 -3.21884e-06 9.87562e-11 3.74932e-35
2958 1 0.000635 -0.00537226 -0.008255 -0.010152 1.44607e-16 -7.15799e-17 2.16e-11 5.26426e-25 4.0079e-35
3044 1 0.000635 -0.00427241 -0.00889 -0.010152 -1.03289e-16 -4.76841e-17 2.16e-11 1.05285e-24 2.71503e-35
3131 1 0.000635 -0.00317256 -0.008255 -0.010152 3.09912e-17 -7.75431e-17 2.16e-11 5.26426e-25 1.87466e-35
3217 1 0.000635 -0.0020727 -0.00889 -0.010152 -3.38813e-21 -4.76866e-17 2.16e-11 0 5.17148e-36
3304 1 0.000635 -0.000972852 -0.008255 -0.010152 0 -7.15833e-17 2.16e-11 0 1.0343e-35
3390 1 0.000635 0.000127 -0.00889 -0.010152 0 -4.76866e-17 2.16e-11 0 5.17148e-36
3477 1 0.000635 0.00122685 -0.008255 -0.010152 0 -7.15833e-17 2.16e-11 0 1.0343e-35
3563 1 0.000635 0.0023267 -0.00889 -0.010152 0 -4.76858e-17 2.16e-11 0 5.17148e-36
3650 1 0.000635 0.00342656 -0.008255 -0.010152 4.13098e-17 -7.15825e-17 2.16e-11 0 1.0343e-35
3736 1 0.000635 0.00452641 -0.00889 -0.010152 4.13115e-17 -4.76841e-17 2.16e-11 0 3.10289e-35
3823 1 0.000635 0.00562626 -0.008255 -0.010152 -1.446e-16 -7.15791e-17 2.16e-11 0 4.0079e-35
3908 1 0.000635 0.00672611 -0.00889 -0.010152 1.93082e-08 -2.10567e-08 -1.9721e-06 3.77242e-11 1.68073e-35
3994 1 0.000635 0.00782597 -0.008255 -0.010152 -1.27782e-08 -5.50715e-08 -2.66515e-06 7.56879e-11 1.0343e-35
4079 1 0.000635 0.00892582 -0.00889 -0.010152 -6.35797e-05 6.71458e-05 -1.57149e-05 5.52758e-10 2.97613e-11
4165 1 0.000635 0.0100257 -0.008255 -0.010152 0.000199859 2.80041e-05 4.68253e-05 7.71313e-10 2.32147e-10
4250 1 0.000635 0.0110561 -0.0088338 -0.00968621 -2.69528e-10 1.65299e-10 7.96283e-10 9.92651e-10 2.85724e-11
4335 1 0.000635 0.0120606 -0.00813177 -0.00935321 -2.55867e-11 -6.85728e-12 3.03909e-10 8.98108e-10 1.35512e-11
2194 1 0.000635 -0.0151738 -0.0076105 -0.00929604 -2.55951e-10 -4.31308e-11 -7.05306e-10 1.2915e-09 1.30765e-10
2278 1 0.000635 -0.0141284 -0.00697651 -0.00964751 -1.86975e-10 -3.78829e-11 -6.17345e-10 1.92375e-09 1.42573e-10
2362 1 0.000635 -0.0130622 -0.00761559 -0.00991046 -8.57762e-11 -4.37558e-11 -3.95607e-10 1.45546e-09 4.8297e-11
2447 1 0.000635 -0.0119694 -0.00698454 -0.0100634 2.53161e-11 2.67955e-11 4.99853e-10 2.33678e-10 3.79494e-11
2531 1 0.000635 -0.0108712 -0.00761992 -0.0101178 -2.15651e-12 9.11307e-12 -5.04077e-11 2.87993e-10 5.52317e-12
2617 1 0.000635 -0.00977167 -0.006985 -0.010152 -6.04448e-06 -3.4444e-06 -2.16759e-06 6.97278e-11 2.14273e-13
2702 1 0.000635 -0.00867182 -0.00762 -0.010152 -7.13876e-08 -1.53682e-08 -3.07838e-06 9.0098e-11 2.9736e-35
2788 1 0.000635 -0.00757197 -0.006985 -0.010152 1.44605e-16 -2.38958e-17 2.16e-11 0 4.0079e-35
2873 1 0.000635 -0.00647211 -0.00762 -0.010152 -1.44609e-16 2.38967e-17 2.16e-11 0 4.0079e-35
2959 1 0.000635 -0.00537226 -0.006985 -0.010152 1.44605e-16 -2.38958e-17 2.16e-11 0 4.0079e-35
3045 1 0.000635 -0.00427241 -0.00762 -0.010152 -1.13623e-16 2.98573e-17 2.16e-11 0 2.90896e-35
3132 1 0.000635 -0.00317256 -0.006985 -0.010152 3.09912e-17 -2.98573e-17 2.16e-11 0 1.87466e-35
3218 1 0.000635 -0.0020727 -0.00762 -0.010152 -1.69407e-21 2.38958e-17 2.16e-11 0 1.0343e-35
3305 1 0.000635 -0.000972852 -0.006985 -0.010152 0 -2.38967e-17 2.16e-11 0 1.0343e-35
3391 1 0.000635 0.000127 -0.00762 -0.010152 0 2.38967e-17 2.16e-11 0 1.0343e-35
3478 1 0.000635 0.00122685 -0.006985 -0.010152 0 -2.38967e-17 2.16e-11 0 1.0343e-35
3564 1 0.000635 0.0023267 -0.00762 -0.010152 0 2.38967e-17 2.16e-11 0 1.0343e-35
3651 1 0.000635 0.00342656 -0.006985 -0.010152 4.13081e-17 -2.38967e-17 2.16e-11 0 1.0343e-35
3737 1 0.000635 0.00452641 -0.00762 -0.010152 4.13217e-17 2.38958e-17 2.16e-11 0 2.06859e-35
3824 1 0.000635 0.00562626 -0.006985 -0.010152 -1.44599e-16 -2.3895e-17 2.16e-11 0 4.0079e-35
3909 1 0.000635 0.00672611 -0.00762 -0.010152 6.19757e-17 2.38958e-17 2.16e-11 0 2.9736e-35
3995 1 0.000635 0.00782597 -0.006985 -0.010152 -6.77626e-21 -2.38967e-17 2.16e-11 0 1.0343e-35
4080 1 0.000635 0.00892582 -0.00762 -0.010152 -4.76128e-08 -1.06746e-07 -4.94214e-06 3.43744e-10 1.0343e-35
4166 1 0.000635 0.0100257 -0.006985 -0.010152 -6.63624e-05 3.80615e-05 -1.24741e-05 6.01665e-10 2.71761e-11
4251 1 0.000635 0.0111205 -0.00761471 -0.0100326 -4.88347e-11 1.57904e-11 3.401e-10 9.34769e-10 3.38782e-10
4336 1 0.000635 0.0121878 -0.00695609 -0.0098171 -5.85717e-11 2.96989e-12 2.74004e-10 1.09638e-09 2.24595e-10
2195 1 0.000635 -0.0151486 -0.00634295 -0.00923408 -1.18682e-10 -5.58956e-11 -3.84801e-10 1.46859e-10 5.89761e-11
2279 1 0.000635 -0.014104 -0.00570918 -0.00958498 -2.60782e-10 -7.74167e-12 -7.20377e-10 8.39174e-11 8.84678e-11
2363 1 0.000635 -0.0130573 -0.00634634 -0.00991675 -5.76831e-11 -1.52047e-11 -6.64903e-11 2.57086e-10 7.29879e-11
2448 1 0.000635 -0.0119706 -0.00571537 -0.01011 2.59097e-11 1.16996e-12 3.3237e-10 1.41404e-10 5.90955e-11
2532 1 0.000635 -0.0108715 -0.00635 -0.010152 -4.72396e-05 -5.46078e-05 4.52282e-06 8.05155e-11 1.91274e-11
2618 1 0.000635 -0.00977167 -0.005715 -0.010152 -2.68012e-09 4.64211e-09 -7.80737e-07 1.15343e-11 6.85221e-35
2703 1 0.000635 -0.00867182 -0.00635 -0.010152 -4.24297e-10 7.34905e-10 -3.01879e-07 1.72273e-12 2.9736e-35
2789 1 0.000635 -0.00757197 -0.005715 -0.010152 1.44602e-16 4.76832e-17 2.16e-11 0 3.74932e-35
2874 1 0.000635 -0.00647211 -0.00635 -0.010152 -1.44609e-16 7.15816e-17 2.16e-11 0 4.0079e-35
2960 1 0.000635 -0.00537226 -0.005715 -0.010152 1.44604e-16 4.76841e-17 2.16e-11 5.26426e-25 3.74932e-35
3046 1 0.000635 -0.00427241 -0.00635 -0.010152 -1.13621e-16 7.75431e-17 2.16e-11 0 2.90896e-35
3133 1 0.000635 -0.00317256 -0.005715 -0.010152 2.0671e-17 4.76858e-17 2.16e-11 5.26426e-25 6.46435e-36
3219 1 0.000635 -0.0020727 -0.00635 -0.010152 -5.0822e-21 7.15842e-17 2.16e-11 0 1.0343e-35
3306 1 0.000635 -0.000972852 -0.005715 -0.010152 0 4.76866e-17 2.16e-11 0 5.17148e-36
3392 1 0.000635 0.000127 -0.00635 -0.010152 0 7.1585e-17 2.16e-11 0 1.0343e-35
3479 1 0.000635 0.00122685 -0.005715 -0.010152 0 4.76866e-17 2.16e-11 0 5.17148e-36
3565 1 0.000635 0.0023267 -0.00635 -0.010152 0 7.15842e-17 2.16e-11 0 1.0343e-35
3652 1 0.000635 0.00342656 -0.005715 -0.010152 4.13098e-17 4.76858e-17 2.16e-11 0 1.0343e-35
3738 1 0.000635 0.00452641 -0.00635 -0.010152 4.13183e-17 7.15816e-17 2.16e-11 0 2.06859e-35
3825 1 0.000635 0.00562626 -0.005715 -0.010152 -1.44597e-16 4.76841e-17 2.16e-11 0 3.74932e-35
3910 1 0.000635 0.00672611 -0.00635 -0.010152 6.19774e-17 7.15825e-17 2.16e-11 0 2.9736e-35
3996 1 0.000635 0.00782597 -0.005715 -0.010152 -6.77626e-21 4.76849e-17 2.16e-11 0 5.17148e-36
4081 1 0.000635 0.00892582 -0.00635 -0.010152 -9.06075e-09 -1.56937e-08 -1.05377e-06 2.10381e-11 1.0343e-35
4167 1 0.000635 0.0100257 -0.005715 -0.010152 -2.7515e-08 -4.76574e-08 -2.95822e-06 1.68426e-10 6.85221e-35
4252 1 0.000635 0.0111255 -0.00635 -0.010152 -0.000184697 -2.05783e-05 -3.07727e-05 8.4933e-10 1.09532e-10
4337 1 0.000635 0.0122226 -0.00571619 -0.0101006 -3.648e-11 1.76541e-11 4.47285e-10 1.18432e-09 2.66801e-10
4421 1 0.000635 0.0131935 -0.00625426 -0.00948551 1.48064e-10 -1.44875e-10 1.50179e-11 1.93663e-09 3.59542e-11
2364 1 0.000635 -0.013047 -0.00507689 -0.00990106 7.46231e-11 -1.08206e-11 3.77659e-10 1.94574e-10 1.68464e-10
2533 1 0.000635 -0.0108715 -0.00508 -0.010152 -1.21594e-05 -7.11453e-06 -2.91311e-06 1.56282e-10 8.80063e-13
2704 1 0.000635 -0.00867182 -0.00508 -0.010152 -6.19774e-17 -2.3845e-17 2.16e-11 0 1.42216e-35
2875 1 0.000635 -0.00647211 -0.00508 -0.010152 -1.44605e-16 -2.38442e-17 2.16e-11 0 3.49075e-35
3047 1 0.000635 -0.00427241 -0.00508 -0.010152 -1.03287e-16 -2.38433e-17 2.16e-11 1.57928e-24 2.45645e-35
3220 1 0.000635 -0.0020727 -0.00508 -0.010152 -3.38813e-21 -2.38442e-17 2.16e-11 0 2.58574e-36
3393 1 0.000635 0.000127 -0.00508 -0.010152 0 -2.38442e-17 2.16e-11 0 2.58574e-36
3566 1 0.000635 0.0023267 -0.00508 -0.010152 -3.38813e-21 -2.38459e-17 2.16e-11 0 2.58574e-36
3739 1 0.000635 0.00452641 -0.00508 -0.010152 4.13081e-17 -2.38433e-17 2.16e-11 5.26426e-25 2.84431e-35
3911 1 0.000635 0.00672611 -0.00508 -0.010152 6.19859e-17 -2.38442e-17 2.16e-11 0 1.42216e-35
4082 1 0.000635 0.00892582 -0.00508 -0.010152 -8.47033e-21 -2.3845e-17 2.16e-11 0 2.58574e-36
4253 1 0.000635 0.0111255 -0.00508 -0.010152 -3.6615e-05 2.09536e-05 -8.38042e-06 5.72198e-10 8.21063e-12
4422 1 0.000635 0.0133085 -0.00507813 -0.00995313 -3.7809e-11 3.72674e-12 2.86074e-10 1.51899e-09 7.93657e-11
2280 1 0.000635 -0.0140799 -0.00444206 -0.00952336 -1.65802e-10 -6.43001e-12 -3.82342e-10 5.89513e-11 3.97497e-11
2365 1 0.000635 -0.0130349 -0.00380871 -0.00987072 1.36788e-10 -1.5526e-11 4.77292e-10 2.62088e-10 4.62485e-11
2449 1 0.000635 -0.0119714 -0.004445 -0.010152 -0.000155083 -0.000104324 4.80785e-05 2.34388e-10 1.12781e-10
2534 1 0.000635 -0.0108715 -0.00381 -0.010152 -1.20298e-07 -6.50547e-08 -4.62854e-06 2.05699e-10 4.65433e-35
2619 1 0.000635 -0.00977167 -0.004445 -0.010152 -3.02482e-09 5.23913e-09 -3.70696e-07 2.59854e-12 6.01185e-35
2705 1 0.000635 -0.00867182 -0.00381 -0.010152 -8.2623e-17 0 2.16e-11 1.05285e-24 2.06859e-35
2790 1 0.000635 -0.00757197 -0.004445 -0.010152 1.44602e-16 -5.96282e-17 2.16e-11 5.26426e-25 3.74932e-35
2876 1 0.000635 -0.00647211 -0.00381 -0.010152 -1.44605e-16 0 2.16e-11 0 3.23218e-35
2961 1 0.000635 -0.00537226 -0.004445 -0.010152 1.44604e-16 -5.9629e-17 2.16e-11 5.26426e-25 3.74932e-35
3048 1 0.000635 -0.00427241 -0.00381 -0.010152 -1.03291e-16 0 2.16e-11 0 1.68073e-35
3134 1 0.000635 -0.00317256 -0.004445 -0.010152 3.09963e-17 -5.36693e-17 2.16e-11 1.57928e-24 8.40366e-36
3221 1 0.000635 -0.0020727 -0.00381 -0.010152 -6.77626e-21 0 2.16e-11 2.10571e-24 0
3307 1 0.000635 -0.000972852 -0.004445 -0.010152 0 -4.77053e-17 2.16e-11 1.05285e-24 5.17148e-36
3394 1 0.000635 0.000127 -0.00381 -0.010152 0 0 2.16e-11 1.05285e-24 0
3480 1 0.000635 0.00122685 -0.004445 -0.010152 0 -4.77053e-17 2.16e-11 1.05285e-24 5.17148e-36
3567 1 0.000635 0.0023267 -0.00381 -0.010152 0 0 2.16e-11 2.10571e-24 0
3653 1 0.000635 0.00342656 -0.004445 -0.010152 3.09811e-17 -5.36701e-17 2.16e-11 1.05285e-24 8.40366e-36
3740 1 0.000635 0.00452641 -0.00381 -0.010152 4.13217e-17 7.70372e-34 2.16e-11 0 1.29287e-35
3826 1 0.000635 0.00562626 -0.004445 -0.010152 -1.44597e-16 -5.9629e-17 2.16e-11 5.26426e-25 3.74932e-35
3912 1 0.000635 0.00672611 -0.00381 -0.010152 8.26298e-17 0 2.16e-11 1.05285e-24 2.06859e-35
3997 1 0.000635 0.00782597 -0.004445 -0.010152 -3.38813e-21 -4.77061e-17 2.16e-11 1.05285e-24 5.17148e-36
4083 1 0.000635 0.00892582 -0.00381 -0.010152 -6.77626e-21 0 2.16e-11 1.05285e-24 0
4168 1 0.000635 0.0100257 -0.004445 -0.010152 1.07155e-08 1.85598e-08 -4.53775e-07 3.90189e-12 6.01185e-35
4254 1 0.000635 0.0111255 -0.00381 -0.010152 6.67533e-08 -1.29375e-08 -3.42346e-06 1.11637e-10 4.65433e-35
4338 1 0.000635 0.0122254 -0.004445 -0.010152 9.18578e-05 -8.6984e-05 1.71069e-05 1.27381e-09 1.07216e-10
4423 1 0.000635 0.0133134 -0.00380878 -0.00998311 1.09709e-10 -1.49815e-11 -5.3337e-10 8.747e-10 9.34221e-11
4507 1 0.000635 0.0143758 -0.00444192 -0.00969387 -5.41381e-11 1.56884e-12 3.29097e-10 1.44928e-09 2.04911e-11
4591 1 0.000635 0.0154301 -0.00380742 -0.00938073 -2.56503e-10 1.05481e-12 8.4182e-10 8.53496e-10 2.3134e-11
2281 1 0.000635 -0.0140693 -0.00317337 -0.0094976 6.40483e-11 -1.13706e-11 1.66524e-10 3.77784e-11 2.31421e-11
2366 1 0.000635 -0.0130366 -0.00253933 -0.00987753 -9.7994e-11 -1.02145e-11 -3.20044e-10 2.64116e-10 1.10878e-11
2450 1 0.000635 -0.0119714 -0.003175 -0.010152 8.18825e-09 2.49764e-05 7.89672e-06 2.56859e-10 5.67411e-12
2535 1 0.000635 -0.0108715 -0.00254 -0.010152 -1.50991e-07 -8.86066e-10 -4.87566e-06 2.28306e-10 6.33506e-35
2620 1 0.000635 -0.00977167 -0.003175 -0.010152 -1.3427e-16 4.1748e-17 2.16e-11 5.26426e-25 5.81792e-35
2706 1 0.000635 -0.00867182 -0.00254 -0.010152 -7.2301e-17 -5.97417e-18 2.16e-11 0 1.61609e-35
2791 1 0.000635 -0.00757197 -0.003175 -0.010152 1.44602e-16 4.77053e-17 2.16e-11 5.26426e-25 3.55539e-35
2877 1 0.000635 -0.00647211 -0.00254 -0.010152 -1.44605e-16 -1.19365e-17 2.16e-11 0 3.23218e-35
2962 1 0.000635 -0.00537226 -0.003175 -0.010152 1.44604e-16 4.7707e-17 2.16e-11 0 3.55539e-35
3049 1 0.000635 -0.00427241 -0.00254 -0.010152 -1.03284e-16 -1.19373e-17 2.16e-11 5.26426e-25 1.93931e-35
3135 1 0.000635 -0.00317256 -0.003175 -0.010152 3.09963e-17 4.17472e-17 2.16e-11 1.05285e-24 6.46435e-36
3222 1 0.000635 -0.0020727 -0.00254 -0.010152 0 -1.43996e-20 2.16e-11 0 0
3308 1 0.000635 -0.000972852 -0.003175 -0.010152 0 3.57823e-17 2.16e-11 1.05285e-24 3.23218e-36
3395 1 0.000635 0.000127 -0.00254 -0.010152 0 -1.35525e-20 2.16e-11 0 0
3481 1 0.000635 0.00122685 -0.003175 -0.010152 0 3.57823e-17 2.16e-11 1.05285e-24 3.23218e-36
3568 1 0.000635 0.0023267 -0.00254 -0.010152 -6.77626e-21 -1.35525e-20 2.16e-11 0 0
3654 1 0.000635 0.00342656 -0.003175 -0.010152 3.09777e-17 4.17463e-17 2.16e-11 1.05285e-24 6.46435e-36
3741 1 0.000635 0.00452641 -0.00254 -0.010152 4.13115e-17 -1.19382e-17 2.16e-11 5.26426e-25 1.93931e-35
3827 1 0.000635 0.00562626 -0.003175 -0.010152 -1.44595e-16 4.77053e-17 2.16e-11 5.26426e-25 3.55539e-35
3913 1 0.000635 0.00672611 -0.00254 -0.010152 7.23095e-17 -5.97502e-18 2.16e-11 0 1.61609e-35
3998 1 0.000635 0.00782597 -0.003175 -0.010152 0 3.57823e-17 2.16e-11 1.05285e-24 3.23218e-36
4084 1 0.000635 0.00892582 -0.00254 -0.010152 -8.47033e-21 -1.27055e-20 2.16e-11 0 0
4169 1 0.000635 0.0100257 -0.003175 -0.010152 1.3427e-16 4.1748e-17 2.16e-11 5.26426e-25 5.81792e-35
4255 1 0.000635 0.0111255 -0.00254 -0.010152 6.00477e-08 -2.97919e-08 -3.20421e-06 9.81609e-11 6.33506e-35
4339 1 0.000635 0.0122254 -0.003175 -0.010152 5.37976e-05 8.49672e-06 1.30726e-05 1.31948e-10 9.7159e-12
4424 1 0.000635 0.0133093 -0.00253946 -0.00996254 -4.6216e-11 -5.54915e-12 2.11717e-10 1.4778e-10 1.87798e-11
4508 1 0.000635 0.0143846 -0.00317317 -0.00972565 -1.49757e-10 -1.14863e-11 5.20008e-10 1.0476e-09 1.05266e-10
4592 1 0.000635 0.0154363 -0.00253851 -0.00939686 -2.86271e-10 -1.15128e-11 8.67409e-10 4.46492e-10 7.86989e-11
2282 1 0.000635 -0.0140703 -0.00190414 -0.0095015 -2.13479e-10 -1.6722e-11 -5.80404e-10 4.07992e-11 1.47781e-11
2367 1 0.000635 -0.0130374 -0.0012697 -0.00988047 9.14892e-11 -4.05396e-12 3.07551e-10 2.60209e-10 5.41736e-12
2451 1 0.000635 -0.0119714 -0.001905 -0.010152 -4.17339e-06 1.43958e-05 8.86478e-06 2.57826e-10 1.95839e-12
2536 1 0.000635 -0.0108715 -0.00127 -0.010152 -1.48118e-07 -7.65944e-10 -4.81043e-06 2.2209e-10 6.33506e-35
2621 1 0.000635 -0.00977167 -0.001905 -0.010152 -1.44592e-16 -1.19229e-17 2.16e-11 5.26426e-25 6.39971e-35
2707 1 0.000635 -0.00867182 -0.00127 -0.010152 -7.2301e-17 5.96909e-18 2.16e-11 5.26426e-25 1.61609e-35
2792 1 0.000635 -0.00757197 -0.001905 -0.010152 1.44605e-16 -1.19229e-17 2.16e-11 0 3.29682e-35
2878 1 0.000635 -0.00647211 -0.00127 -0.010152 -1.44605e-16 1.19331e-17 2.16e-11 0 3.23218e-35
2963 1 0.000635 -0.00537226 -0.001905 -0.010152 1.44602e-16 -1.19246e-17 2.16e-11 0 3.29682e-35
3050 1 0.000635 -0.00427241 -0.00127 -0.010152 -1.13613e-16 5.96993e-18 2.16e-11 0 2.13324e-35
3136 1 0.000635 -0.00317256 -0.001905 -0.010152 4.13081e-17 -1.19229e-17 2.16e-11 0 5.81792e-36
3223 1 0.000635 -0.0020727 -0.00127 -0.010152 0 7.6233e-21 2.16e-11 0 0
3309 1 0.000635 -0.000972852 -0.001905 -0.010152 0 -1.19229e-17 2.16e-11 0 6.46435e-37
3396 1 0.000635 0.000127 -0.00127 -0.010152 0 6.77626e-21 2.16e-11 0 0
3482 1 0.000635 0.00122685 -0.001905 -0.010152 0 -1.19229e-17 2.16e-11 0 6.46435e-37
3569 1 0.000635 0.0023267 -0.00127 -0.010152 -6.77626e-21 6.77626e-21 2.16e-11 0 0
3655 1 0.000635 0.00342656 -0.001905 -0.010152 2.06608e-17 -1.19229e-17 2.16e-11 0 1.93931e-36
3742 1 0.000635 0.00452641 -0.00127 -0.010152 4.13149e-17 1.19331e-17 2.16e-11 5.26426e-25 1.93931e-35
3828 1 0.000635 0.00562626 -0.001905 -0.010152 -1.44599e-16 -1.19229e-17 2.16e-11 0 3.29682e-35
3914 1 0.000635 0.00672611 -0.00127 -0.010152 7.23078e-17 5.96909e-18 2.16e-11 5.26426e-25 1.61609e-35
3999 1 0.000635 0.00782597 -0.001905 -0.010152 -6.77626e-21 -1.19229e-17 2.16e-11 5.26426e-25 6.46435e-37
4085 1 0.000635 0.00892582 -0.00127 -0.010152 -6.77626e-21 6.77626e-21 2.16e-11 0 0
4170 1 0.000635 0.0100257 -0.001905 -0.010152 1.44599e-16 -1.19229e-17 2.16e-11 0 6.39971e-35
4256 1 0.000635 0.0111255 -0.00127 -0.010152 7.09847e-08 -8.62931e-09 -3.38571e-06 1.09152e-10 6.33506e-35
4340 1 0.000635 0.0122254 -0.001905 -0.010152 2.00046e-05 1.63616e-06 9.14769e-06 1.246e-10 1.32136e-12
4425 1 0.000635 0.0133081 -0.0012698 -0.00995748 9.91939e-11 5.52868e-13 -4.76745e-10 1.36667e-10 3.49468e-12
4509 1 0.000635 0.0143754 -0.00190426 -0.00969003 2.00882e-10 2.56822e-11 -7.81858e-10 4.86858e-11 1.4873e-11
4593 1 0.000635 0.015426 -0.00126951 -0.00936239 2.94809e-10 1.45776e-11 -9.63963e-10 2.46386e-11 1.03669e-11
2283 1 0.000635 -0.0140715 -0.000634734 -0.00950497 9.73805e-12 -4.03927e-12 4.72875e-11 4.03288e-11 1.12171e-11
2452 1 0.000635 -0.0119714 -0.000635 -0.010152 -7.9598e-06 4.30314e-06 9.75957e-06 2.55962e-10 4.08645e-13
2622 1 0.000635 -0.00977167 -0.000635 -0.010152 -1.44599e-16 -8.47033e-21 2.16e-11 0 6.33506e-35
2793 1 0.000635 -0.00757197 -0.000635 -0.010152 1.44604e-16 -1.19339e-17 2.16e-11 5.26426e-25 3.23218e-35
2964 1 0.000635 -0.00537226 -0.000635 -0.010152 1.44604e-16 -1.19365e-17 2.16e-11 0 3.23218e-35
3137 1 0.000635 -0.00317256 -0.000635 -0.010152 4.13183e-17 -8.47033e-21 2.16e-11 0 5.17148e-36
3310 1 0.000635 -0.000972852 -0.000635 -0.010152 0 -8.47033e-21 2.16e-11 0 0
3483 1 0.000635 0.00122685 -0.000635 -0.010152 0 -8.47033e-21 2.16e-11 0 0
3656 1 0.000635 0.00342656 -0.000635 -0.010152 3.09811e-17 -5.97078e-18 2.16e-11 5.26426e-25 3.23218e-36
3829 1 0.000635 0.00562626 -0.000635 -0.010152 -1.44597e-16 -1.19339e-17 2.16e-11 5.26426e-25 3.23218e-35
4000 1 0.000635 0.00782597 -0.000635 -0.010152 0 -8.47033e-21 2.16e-11 0 0
4171 1 0.000635 0.0100257 -0.000635 -0.010152 1.44599e-16 -8.47033e-21 2.16e-11 0 6.33506e-35
4341 1 0.000635 0.0122254 -0.000635 -0.010152 5.70864e-06 1.18557e-06 6.47692e-06 1.3227e-10 1.27185e-13
4426 1 0.000635 0.013308 7.96917e-16 -0.00995753 -9.43053e-11 -1.14012e-13 4.09733e-10 1.38949e-10 1.562e-12
4510 1 0.000635 0.0143711 -0.000634798 -0.0096747 -2.80968e-11 -1.28661e-12 8.03263e-11 3.15178e-11 5.48515e-12
2284 1 0.000635 -0.0140715 0.000634734 -0.00950497 9.80554e-12 4.02021e-12 4.72601e-11 4.03288e-11 1.12171e-11
2368 1 0.000635 -0.0130375 -4.35284e-16 -0.00988104 1.43287e-10 4.98447e-14 4.7839e-10 2.59602e-10 4.11232e-12
2453 1 0.000635 -0.0119714 0.000635 -0.010152 -7.9598e-06 -4.30314e-06 9.75957e-06 2.55962e-10 4.08645e-13
2537 1 0.000635 -0.0108715 0 -0.010152 -1.46971e-07 -1.31205e-18 -4.78935e-06 2.20108e-10 6.33506e-35
2623 1 0.000635 -0.00977167 0.000635 -0.010152 -1.44599e-16 -3.38813e-21 2.16e-11 0 6.33506e-35
2708 1 0.000635 -0.00867182 0 -0.010152 -8.26247e-17 5.92923e-21 2.16e-11 0 2.06859e-35
2794 1 0.000635 -0.00757197 0.000635 -0.010152 1.44602e-16 -3.38813e-21 2.16e-11 0 3.23218e-35
2879 1 0.000635 -0.00647211 0 -0.010152 -1.44605e-16 5.0822e-21 2.16e-11 0 3.23218e-35
2965 1 0.000635 -0.00537226 0.000635 -0.010152 1.44602e-16 -3.38813e-21 2.16e-11 0 3.23218e-35
3051 1 0.000635 -0.00427241 0 -0.010152 -1.03282e-16 5.92923e-21 2.16e-11 0 1.68073e-35
3138 1 0.000635 -0.00317256 0.000635 -0.010152 4.13149e-17 -3.38813e-21 2.16e-11 0 5.17148e-36
3224 1 0.000635 -0.0020727 0 -0.010152 0 6.77626e-21 2.16e-11 0 0
3311 1 0.000635 -0.000972852 0.000635 -0.010152 0 -3.38813e-21 2.16e-11 0 0
3397 1 0.000635 0.000127 0 -0.010152 0 6.77626e-21 2.16e-11 0 0
3484 1 0.000635 0.00122685 0.000635 -0.010152 0 -3.38813e-21 2.16e-11 0 0
3570 1 0.000635 0.0023267 0 -0.010152 -3.38813e-21 5.0822e-21 2.16e-11 5.26426e-25 0
3657 1 0.000635 0.00342656 0.000635 -0.010152 2.06574e-17 -3.38813e-21 2.16e-11 0 1.29287e-36
3743 1 0.000635 0.00452641 0 -0.010152 4.13132e-17 5.92923e-21 2.16e-11 0 1.29287e-35
3830 1 0.000635 0.00562626 0.000635 -0.010152 -1.44595e-16 -3.38813e-21 2.16e-11 0 3.23218e-35
3915 1 0.000635 0.00672611 0 -0.010152 8.26315e-17 5.92923e-21 2.16e-11 0 2.06859e-35
4001 1 0.000635 0.00782597 0.000635 -0.010152 0 -3.38813e-21 2.16e-11 0 0
4086 1 0.000635 0.00892582 0 -0.010152 -6.77626e-21 6.77626e-21 2.16e-11 0 0
4172 1 0.000635 0.0100257 0.000635 -0.010152 1.44599e-16 -3.38813e-21 2.16e-11 0 6.33506e-35
4257 1 0.000635 0.0111255 0 -0.010152 7.41436e-08 -8.86759e-18 -3.43093e-06 1.12097e-10 6.33506e-35