ITEM: TIMESTEP
670000
ITEM: NUMBER OF ATOMS
6793
ITEM: BOX BOUNDS ff ff ff
-8.9999999999999997e-02 8.9999999999999997e-02
-8.9999999999999997e-02 8.9999999999999997e-02
-4.0000000000000001e-02 4.0000000000000001e-02
ITEM: ATOMS id type radius x y z fx fy fz c_bendingE c_stretchingE
3386 1 0.000635 0.000126875 -0.0139676 -0.00714662 3.10565e-10 -4.00518e-10 -4.04491e-09 7.69559e-10 2.53132e-11
3214 1 0.000635 -0.0020727 -0.0127 -0.007236 -6.09962e-05 1.54473e-05 1.75608e-06 8.47995e-10 3.64575e-11
3300 1 0.000635 -0.000972951 -0.0133348 -0.00721252 3.98563e-11 -7.03413e-10 -1.06617e-08 6.20684e-10 1.55459e-11
3387 1 0.000635 0.000127 -0.0127 -0.007236 4.43237e-07 -5.18778e-05 3.28088e-06 8.20517e-11 8.49638e-12
3473 1 0.000635 0.00122652 -0.0133338 -0.00718256 -9.23665e-11 5.27979e-10 5.45946e-09 7.82362e-11 3.31874e-11
3560 1 0.000635 0.0023267 -0.0127 -0.007236 4.61445e-05 -0.000213719 5.00613e-05 1.32369e-10 1.50628e-10
3733 1 0.000635 0.00452272 -0.0126918 -0.00709456 5.15308e-11 -4.81902e-10 -3.04229e-09 8.23894e-11 1.1708e-11
3042 1 0.000635 -0.00427241 -0.01143 -0.007236 -4.02185e-06 4.44895e-05 -5.49403e-06 4.26304e-10 1.03046e-11
3128 1 0.000635 -0.00317256 -0.012065 -0.007236 -2.85227e-05 6.86132e-05 -7.96522e-06 5.41685e-10 3.81283e-11
3215 1 0.000635 -0.0020727 -0.01143 -0.007236 1.94798e-08 -7.66182e-08 -3.36141e-06 1.07588e-10 5.17148e-36
3301 1 0.000635 -0.000972852 -0.012065 -0.007236 4.41887e-08 -2.56199e-06 -3.03355e-06 9.33154e-11 2.72914e-14
3388 1 0.000635 0.000127 -0.01143 -0.007236 1.1018e-09 0 -7.87838e-07 1.17448e-11 5.17148e-36
3474 1 0.000635 0.00122685 -0.012065 -0.007236 -2.26075e-08 5.47564e-06 -2.32335e-06 8.30498e-11 1.41718e-13
3561 1 0.000635 0.0023267 -0.01143 -0.007236 2.47525e-08 -3.97912e-08 -3.21794e-06 1.03557e-10 5.17148e-36
3647 1 0.000635 0.00342656 -0.012065 -0.007236 3.00382e-05 -1.90534e-06 5.889e-06 9.77922e-11 6.58725e-12
3734 1 0.000635 0.00452641 -0.01143 -0.007236 1.32831e-05 5.73887e-06 3.0033e-06 6.80321e-11 1.88912e-12
3820 1 0.000635 0.00562379 -0.0120601 -0.00712465 -7.61478e-11 -1.93735e-10 -1.48417e-09 6.02266e-11 2.68035e-12
3906 1 0.000635 0.00672446 -0.0114272 -0.00714891 -2.73534e-11 -1.9987e-10 -2.97118e-09 5.89606e-11 3.75521e-12
2785 1 0.000635 -0.00756431 -0.0107838 -0.00706539 -4.96331e-10 -1.15274e-09 -8.04362e-09 4.59945e-10 2.83856e-11
2956 1 0.000635 -0.00537226 -0.010795 -0.007236 1.53519e-05 2.79682e-05 -4.21731e-06 3.738e-10 3.28422e-12
3129 1 0.000635 -0.00317256 -0.010795 -0.007236 -1.5506e-08 -6.71928e-08 -3.38991e-06 1.09388e-10 6.46435e-36
3302 1 0.000635 -0.000972852 -0.010795 -0.007236 8.71342e-10 0 -2.07061e-07 8.10473e-13 5.17148e-36
3475 1 0.000635 0.00122685 -0.010795 -0.007236 2.9174e-09 0 -4.71292e-07 4.19987e-12 5.17148e-36
3648 1 0.000635 0.00342656 -0.010795 -0.007236 3.78421e-08 -2.32304e-08 -2.6358e-06 7.03001e-11 1.0343e-35
3821 1 0.000635 0.00562626 -0.010795 -0.007236 8.57887e-06 -2.27413e-06 2.81208e-06 4.50937e-11 4.81361e-13
3992 1 0.000635 0.00782506 -0.0107941 -0.00717588 8.98211e-11 -8.71339e-11 -2.75879e-09 2.88277e-10 3.21038e-11
2615 1 0.000635 -0.00976464 -0.00951735 -0.00708844 1.59161e-10 2.8476e-11 -1.13896e-09 4.90581e-10 7.42831e-11
2700 1 0.000635 -0.00866456 -0.0101508 -0.00707808 -5.48618e-10 -8.28539e-10 -6.8527e-09 4.55247e-10 4.99954e-11
2786 1 0.000635 -0.00757197 -0.009525 -0.007236 4.82561e-05 7.93111e-06 -3.50233e-06 3.19856e-10 1.60569e-11
2871 1 0.000635 -0.00647211 -0.01016 -0.007236 3.24701e-05 1.67194e-05 -3.70623e-06 3.44076e-10 6.56981e-12
2957 1 0.000635 -0.00537226 -0.009525 -0.007236 -4.52574e-08 -4.47037e-08 -3.18916e-06 9.70513e-11 3.74932e-35
3043 1 0.000635 -0.00427241 -0.01016 -0.007236 -3.39558e-08 -5.63622e-08 -3.32754e-06 1.05496e-10 2.71503e-35
3130 1 0.000635 -0.00317256 -0.009525 -0.007236 2.0671e-17 0 2.16e-11 1.05285e-24 6.46435e-36
3216 1 0.000635 -0.0020727 -0.01016 -0.007236 -6.77626e-21 0 2.16e-11 0 5.17148e-36
3303 1 0.000635 -0.000972852 -0.009525 -0.007236 0 0 2.16e-11 0 5.17148e-36
3389 1 0.000635 0.000127 -0.01016 -0.007236 0 0 2.16e-11 0 5.17148e-36
3476 1 0.000635 0.00122685 -0.009525 -0.007236 0 0 2.16e-11 0 5.17148e-36
3562 1 0.000635 0.0023267 -0.01016 -0.007236 0 0 2.16e-11 0 5.17148e-36
3649 1 0.000635 0.00342656 -0.009525 -0.007236 4.13115e-17 0 2.16e-11 0 1.0343e-35
3735 1 0.000635 0.00452641 -0.01016 -0.007236 2.56902e-08 -1.19178e-08 -2.01561e-06 4.06911e-11 3.10289e-35
3822 1 0.000635 0.00562626 -0.009525 -0.007236 2.02513e-08 -2.71927e-09 -1.51222e-06 2.35849e-11 3.74932e-35
3907 1 0.000635 0.00672611 -0.01016 -0.007236 8.07094e-06 -1.75545e-05 2.35065e-06 3.99225e-11 1.15099e-12
3993 1 0.000635 0.00782597 -0.009525 -0.007236 -1.46465e-06 -2.60674e-05 1.87244e-07 1.32054e-10 3.29526e-12
4078 1 0.000635 0.00892515 -0.0101581 -0.00717442 4.10325e-10 -3.62971e-10 -4.72129e-09 5.28336e-10 2.40659e-11
4164 1 0.000635 0.010019 -0.00951691 -0.00708669 -3.853e-10 2.69053e-10 2.4913e-09 5.05783e-10 3.77442e-11
2446 1 0.000635 -0.0119662 -0.00825227 -0.00709097 -7.46934e-10 -1.50343e-09 -1.15556e-08 7.53369e-10 8.51667e-12
2530 1 0.000635 -0.0108651 -0.00888482 -0.00709565 -7.88117e-11 -7.92967e-10 -5.38729e-09 6.55602e-10 3.03559e-11
2616 1 0.000635 -0.00977167 -0.008255 -0.007236 1.4241e-05 -4.02465e-05 5.02684e-06 2.41397e-10 1.50609e-11
2701 1 0.000635 -0.00867182 -0.00889 -0.007236 6.15343e-05 -8.80033e-07 -3.32794e-06 2.87492e-10 2.91079e-11
2787 1 0.000635 -0.00757197 -0.008255 -0.007236 -5.38319e-08 -2.37413e-08 -2.80693e-06 7.5236e-11 4.0079e-35
2872 1 0.000635 -0.00647211 -0.00889 -0.007236 -5.13658e-08 -3.32716e-08 -3.00097e-06 8.60453e-11 3.74932e-35
2958 1 0.000635 -0.00537226 -0.008255 -0.007236 1.44607e-16 -7.15799e-17 2.16e-11 5.26426e-25 4.0079e-35
3044 1 0.000635 -0.00427241 -0.00889 -0.007236 -1.03289e-16 -4.76841e-17 2.16e-11 1.05285e-24 2.71503e-35
3131 1 0.000635 -0.00317256 -0.008255 -0.007236 3.09912e-17 -7.75431e-17 2.16e-11 5.26426e-25 1.87466e-35
3217 1 0.000635 -0.0020727 -0.00889 -0.007236 -3.38813e-21 -4.76866e-17 2.16e-11 0 5.17148e-36
3304 1 0.000635 -0.000972852 -0.008255 -0.007236 0 -7.15833e-17 2.16e-11 0 1.0343e-35
3390 1 0.000635 0.000127 -0.00889 -0.007236 0 -4.76866e-17 2.16e-11 0 5.17148e-36
3477 1 0.000635 0.00122685 -0.008255 -0.007236 0 -7.15833e-17 2.16e-11 0 1.0343e-35
3563 1 0.000635 0.0023267 -0.00889 -0.007236 0 -4.76858e-17 2.16e-11 0 5.17148e-36
3650 1 0.000635 0.00342656 -0.008255 -0.007236 4.13098e-17 -7.15825e-17 2.16e-11 0 1.0343e-35
3736 1 0.000635 0.00452641 -0.00889 -0.007236 4.13115e-17 -4.76841e-17 2.16e-11 0 3.10289e-35
3823 1 0.000635 0.00562626 -0.008255 -0.007236 -1.446e-16 -7.15791e-17 2.16e-11 0 4.0079e-35
3908 1 0.000635 0.00672611 -0.00889 -0.007236 8.80403e-09 -9.99348e-09 -1.31106e-06 1.67424e-11 1.68073e-35
3994 1 0.000635 0.00782597 -0.008255 -0.007236 -8.29548e-09 -2.82292e-08 -1.84786e-06 3.82671e-11 1.0343e-35
4079 1 0.000635 0.00892582 -0.00889 -0.007236 -4.5792e-05 4.83e-05 -8.82067e-06 3.11681e-10 1.52253e-11
4165 1 0.000635 0.0100257 -0.008255 -0.007236 0.000108092 1.07909e-05 2.28042e-05 4.25735e-10 6.59052e-11
2447 1 0.000635 -0.0119703 -0.00698474 -0.00716972 3.97267e-10 -3.39604e-10 2.27813e-09 1.50848e-10 1.31528e-11
2531 1 0.000635 -0.0108714 -0.00762001 -0.00721249 -1.04697e-10 -3.63914e-10 -3.02724e-09 1.89019e-10 1.75556e-12
2617 1 0.000635 -0.00977167 -0.006985 -0.007236 -4.57985e-06 -2.61027e-06 -1.96966e-06 4.89935e-11 1.2319e-13
2702 1 0.000635 -0.00867182 -0.00762 -0.007236 -5.83672e-08 -9.70876e-09 -2.63021e-06 6.59034e-11 2.9736e-35
2788 1 0.000635 -0.00757197 -0.006985 -0.007236 1.44605e-16 -2.38958e-17 2.16e-11 0 4.0079e-35
2873 1 0.000635 -0.00647211 -0.00762 -0.007236 -1.44609e-16 2.38967e-17 2.16e-11 0 4.0079e-35
2959 1 0.000635 -0.00537226 -0.006985 -0.007236 1.44605e-16 -2.38958e-17 2.16e-11 0 4.0079e-35
3045 1 0.000635 -0.00427241 -0.00762 -0.007236 -1.13623e-16 2.98573e-17 2.16e-11 0 2.90896e-35
3132 1 0.000635 -0.00317256 -0.006985 -0.007236 3.09912e-17 -2.98573e-17 2.16e-11 0 1.87466e-35
3218 1 0.000635 -0.0020727 -0.00762 -0.007236 -1.69407e-21 2.38958e-17 2.16e-11 0 1.0343e-35
3305 1 0.000635 -0.000972852 -0.006985 -0.007236 0 -2.38967e-17 2.16e-11 0 1.0343e-35
3391 1 0.000635 0.000127 -0.00762 -0.007236 0 2.38967e-17 2.16e-11 0 1.0343e-35
3478 1 0.000635 0.00122685 -0.006985 -0.007236 0 -2.38967e-17 2.16e-11 0 1.0343e-35
3564 1 0.000635 0.0023267 -0.00762 -0.007236 0 2.38967e-17 2.16e-11 0 1.0343e-35
3651 1 0.000635 0.00342656 -0.006985 -0.007236 4.13081e-17 -2.38967e-17 2.16e-11 0 1.0343e-35
3737 1 0.000635 0.00452641 -0.00762 -0.007236 4.13217e-17 2.38958e-17 2.16e-11 0 2.06859e-35
3824 1 0.000635 0.00562626 -0.006985 -0.007236 -1.44599e-16 -2.3895e-17 2.16e-11 0 4.0079e-35
3909 1 0.000635 0.00672611 -0.00762 -0.007236 6.19757e-17 2.38958e-17 2.16e-11 0 2.9736e-35
3995 1 0.000635 0.00782597 -0.006985 -0.007236 -6.77626e-21 -2.38967e-17 2.16e-11 0 1.0343e-35
4080 1 0.000635 0.00892582 -0.00762 -0.007236 -2.48323e-08 -5.3212e-08 -3.66238e-06 1.9322e-10 1.0343e-35
4166 1 0.000635 0.0100257 -0.006985 -0.007236 -5.02541e-05 2.89121e-05 -8.22301e-06 3.29833e-10 1.55136e-11
4251 1 0.000635 0.011122 -0.00761688 -0.0071413 -1.33182e-10 -1.20784e-10 5.88282e-10 5.033e-10 9.45141e-11
2448 1 0.000635 -0.0119709 -0.00571517 -0.00720025 -2.5488e-11 -2.86637e-10 -3.58954e-09 7.20167e-11 2.46371e-11
2532 1 0.000635 -0.0108715 -0.00635 -0.007236 -3.20885e-05 -3.23896e-05 2.09436e-06 4.63712e-11 7.44995e-12
2618 1 0.000635 -0.00977167 -0.005715 -0.007236 -1.31919e-09 2.28491e-09 -5.84223e-07 6.45507e-12 6.85221e-35
2703 1 0.000635 -0.00867182 -0.00635 -0.007236 -3.45852e-10 5.99033e-10 -2.07284e-07 8.12216e-13 2.9736e-35
2789 1 0.000635 -0.00757197 -0.005715 -0.007236 1.44602e-16 4.76832e-17 2.16e-11 0 3.74932e-35
2874 1 0.000635 -0.00647211 -0.00635 -0.007236 -1.44609e-16 7.15816e-17 2.16e-11 0 4.0079e-35
2960 1 0.000635 -0.00537226 -0.005715 -0.007236 1.44604e-16 4.76841e-17 2.16e-11 5.26426e-25 3.74932e-35
3046 1 0.000635 -0.00427241 -0.00635 -0.007236 -1.13621e-16 7.75431e-17 2.16e-11 0 2.90896e-35
3133 1 0.000635 -0.00317256 -0.005715 -0.007236 2.0671e-17 4.76858e-17 2.16e-11 5.26426e-25 6.46435e-36
3219 1 0.000635 -0.0020727 -0.00635 -0.007236 -5.0822e-21 7.15842e-17 2.16e-11 0 1.0343e-35
3306 1 0.000635 -0.000972852 -0.005715 -0.007236 0 4.76866e-17 2.16e-11 0 5.17148e-36
3392 1 0.000635 0.000127 -0.00635 -0.007236 0 7.1585e-17 2.16e-11 0 1.0343e-35
3479 1 0.000635 0.00122685 -0.005715 -0.007236 0 4.76866e-17 2.16e-11 0 5.17148e-36
3565 1 0.000635 0.0023267 -0.00635 -0.007236 0 7.15842e-17 2.16e-11 0 1.0343e-35
3652 1 0.000635 0.00342656 -0.005715 -0.007236 4.13098e-17 4.76858e-17 2.16e-11 0 1.0343e-35
3738 1 0.000635 0.00452641 -0.00635 -0.007236 4.13183e-17 7.15816e-17 2.16e-11 0 2.06859e-35
3825 1 0.000635 0.00562626 -0.005715 -0.007236 -1.44597e-16 4.76841e-17 2.16e-11 0 3.74932e-35
3910 1 0.000635 0.00672611 -0.00635 -0.007236 6.19774e-17 7.15825e-17 2.16e-11 0 2.9736e-35
3996 1 0.000635 0.00782597 -0.005715 -0.007236 -6.77626e-21 4.76849e-17 2.16e-11 0 5.17148e-36
4081 1 0.000635 0.00892582 -0.00635 -0.007236 -4.15271e-09 -7.1927e-09 -8.35874e-07 1.32239e-11 1.0343e-35
4167 1 0.000635 0.0100257 -0.005715 -0.007236 -1.20329e-08 -2.08415e-08 -2.32346e-06 1.03153e-10 6.85221e-35
4252 1 0.000635 0.0111255 -0.00635 -0.007236 -0.000103613 -2.78479e-05 -1.1291e-05 4.54176e-10 3.60676e-11
4337 1 0.000635 0.0122232 -0.00571548 -0.00718695 -1.99828e-10 3.84463e-11 2.68739e-09 6.09467e-10 1.0308e-10
2533 1 0.000635 -0.0108715 -0.00508 -0.007236 -6.69951e-06 -3.91712e-06 -2.14197e-06 8.41002e-11 2.67172e-13
2704 1 0.000635 -0.00867182 -0.00508 -0.007236 -6.19774e-17 -2.3845e-17 2.16e-11 0 1.42216e-35
2875 1 0.000635 -0.00647211 -0.00508 -0.007236 -1.44605e-16 -2.38442e-17 2.16e-11 0 3.49075e-35
3047 1 0.000635 -0.00427241 -0.00508 -0.007236 -1.03287e-16 -2.38433e-17 2.16e-11 1.57928e-24 2.45645e-35
3220 1 0.000635 -0.0020727 -0.00508 -0.007236 -3.38813e-21 -2.38442e-17 2.16e-11 0 2.58574e-36
3393 1 0.000635 0.000127 -0.00508 -0.007236 0 -2.38442e-17 2.16e-11 0 2.58574e-36
3566 1 0.000635 0.0023267 -0.00508 -0.007236 -3.38813e-21 -2.38459e-17 2.16e-11 0 2.58574e-36
3739 1 0.000635 0.00452641 -0.00508 -0.007236 4.13081e-17 -2.38433e-17 2.16e-11 5.26426e-25 2.84431e-35
3911 1 0.000635 0.00672611 -0.00508 -0.007236 6.19859e-17 -2.38442e-17 2.16e-11 0 1.42216e-35
4082 1 0.000635 0.00892582 -0.00508 -0.007236 -8.47033e-21 -2.3845e-17 2.16e-11 0 2.58574e-36
4253 1 0.000635 0.0111255 -0.00508 -0.007236 -3.28276e-05 1.88655e-05 -6.27949e-06 3.13426e-10 6.59069e-12
4422 1 0.000635 0.0133133 -0.00507786 -0.00706666 2.05713e-10 -3.20266e-10 -1.3266e-09 7.62311e-10 4.43864e-11
2449 1 0.000635 -0.0119714 -0.004445 -0.007236 -0.000122665 -6.78239e-05 2.97964e-05 1.28214e-10 6.23915e-11
2534 1 0.000635 -0.0108715 -0.00381 -0.007236 -6.65172e-08 -3.66988e-08 -3.48456e-06 1.15874e-10 4.65433e-35
2619 1 0.000635 -0.00977167 -0.004445 -0.007236 -1.77738e-09 3.07852e-09 -3.15217e-07 1.87858e-12 6.01185e-35
2705 1 0.000635 -0.00867182 -0.00381 -0.007236 -8.2623e-17 0 2.16e-11 1.05285e-24 2.06859e-35
2790 1 0.000635 -0.00757197 -0.004445 -0.007236 1.44602e-16 -5.96282e-17 2.16e-11 5.26426e-25 3.74932e-35
2876 1 0.000635 -0.00647211 -0.00381 -0.007236 -1.44605e-16 0 2.16e-11 0 3.23218e-35
2961 1 0.000635 -0.00537226 -0.004445 -0.007236 1.44604e-16 -5.9629e-17 2.16e-11 5.26426e-25 3.74932e-35
3048 1 0.000635 -0.00427241 -0.00381 -0.007236 -1.03291e-16 0 2.16e-11 0 1.68073e-35
3134 1 0.000635 -0.00317256 -0.004445 -0.007236 3.09963e-17 -5.36693e-17 2.16e-11 1.57928e-24 8.40366e-36
3221 1 0.000635 -0.0020727 -0.00381 -0.007236 -6.77626e-21 0 2.16e-11 2.10571e-24 0
3307 1 0.000635 -0.000972852 -0.004445 -0.007236 0 -4.77053e-17 2.16e-11 1.05285e-24 5.17148e-36
3394 1 0.000635 0.000127 -0.00381 -0.007236 0 0 2.16e-11 1.05285e-24 0
3480 1 0.000635 0.00122685 -0.004445 -0.007236 0 -4.77053e-17 2.16e-11 1.05285e-24 5.17148e-36
3567 1 0.000635 0.0023267 -0.00381 -0.007236 0 0 2.16e-11 2.10571e-24 0
3653 1 0.000635 0.00342656 -0.004445 -0.007236 3.09811e-17 -5.36701e-17 2.16e-11 1.05285e-24 8.40366e-36
3740 1 0.000635 0.00452641 -0.00381 -0.007236 4.13217e-17 7.70372e-34 2.16e-11 0 1.29287e-35
3826 1 0.000635 0.00562626 -0.004445 -0.007236 -1.44597e-16 -5.9629e-17 2.16e-11 5.26426e-25 3.74932e-35
3912 1 0.000635 0.00672611 -0.00381 -0.007236 8.26298e-17 0 2.16e-11 1.05285e-24 2.06859e-35
3997 1 0.000635 0.00782597 -0.004445 -0.007236 -3.38813e-21 -4.77061e-17 2.16e-11 1.05285e-24 5.17148e-36
4083 1 0.000635 0.00892582 -0.00381 -0.007236 -6.77626e-21 0 2.16e-11 1.05285e-24 0
4168 1 0.000635 0.0100257 -0.004445 -0.007236 6.60361e-09 1.14378e-08 -4.32776e-07 3.54441e-12 6.01185e-35
4254 1 0.000635 0.0111255 -0.00381 -0.007236 3.85827e-08 -4.0593e-09 -2.73017e-06 7.13894e-11 4.65433e-35
4338 1 0.000635 0.0122254 -0.004445 -0.007236 6.27104e-05 -3.97499e-05 8.80737e-06 6.52879e-10 5.36936e-11
4423 1 0.000635 0.0133193 -0.00380893 -0.00711268 -3.69052e-10 -1.30729e-10 2.46692e-09 4.31719e-10 6.36667e-11
2450 1 0.000635 -0.0119714 -0.003175 -0.007236 -2.19896e-05 7.08922e-06 1.02808e-05 1.40238e-10 2.04324e-12
2535 1 0.000635 -0.0108715 -0.00254 -0.007236 -8.27012e-08 -2.47565e-09 -3.64176e-06 1.26435e-10 6.33506e-35
2620 1 0.000635 -0.00977167 -0.003175 -0.007236 -1.3427e-16 4.1748e-17 2.16e-11 5.26426e-25 5.81792e-35
2706 1 0.000635 -0.00867182 -0.00254 -0.007236 -7.2301e-17 -5.97417e-18 2.16e-11 0 1.61609e-35
2791 1 0.000635 -0.00757197 -0.003175 -0.007236 1.44602e-16 4.77053e-17 2.16e-11 5.26426e-25 3.55539e-35
2877 1 0.000635 -0.00647211 -0.00254 -0.007236 -1.44605e-16 -1.19365e-17 2.16e-11 0 3.23218e-35
2962 1 0.000635 -0.00537226 -0.003175 -0.007236 1.44604e-16 4.7707e-17 2.16e-11 0 3.55539e-35
3049 1 0.000635 -0.00427241 -0.00254 -0.007236 -1.03284e-16 -1.19373e-17 2.16e-11 5.26426e-25 1.93931e-35
3135 1 0.000635 -0.00317256 -0.003175 -0.007236 3.09963e-17 4.17472e-17 2.16e-11 1.05285e-24 6.46435e-36
3222 1 0.000635 -0.0020727 -0.00254 -0.007236 0 -1.43996e-20 2.16e-11 0 0
3308 1 0.000635 -0.000972852 -0.003175 -0.007236 0 3.57823e-17 2.16e-11 1.05285e-24 3.23218e-36
3395 1 0.000635 0.000127 -0.00254 -0.007236 0 -1.35525e-20 2.16e-11 0 0
3481 1 0.000635 0.00122685 -0.003175 -0.007236 0 3.57823e-17 2.16e-11 1.05285e-24 3.23218e-36
3568 1 0.000635 0.0023267 -0.00254 -0.007236 -6.77626e-21 -1.35525e-20 2.16e-11 0 0
3654 1 0.000635 0.00342656 -0.003175 -0.007236 3.09777e-17 4.17463e-17 2.16e-11 1.05285e-24 6.46435e-36
3741 1 0.000635 0.00452641 -0.00254 -0.007236 4.13115e-17 -1.19382e-17 2.16e-11 5.26426e-25 1.93931e-35
3827 1 0.000635 0.00562626 -0.003175 -0.007236 -1.44595e-16 4.77053e-17 2.16e-11 5.26426e-25 3.55539e-35
3913 1 0.000635 0.00672611 -0.00254 -0.007236 7.23095e-17 -5.97502e-18 2.16e-11 0 1.61609e-35
3998 1 0.000635 0.00782597 -0.003175 -0.007236 0 3.57823e-17 2.16e-11 1.05285e-24 3.23218e-36
4084 1 0.000635 0.00892582 -0.00254 -0.007236 -8.47033e-21 -1.27055e-20 2.16e-11 0 0
4169 1 0.000635 0.0100257 -0.003175 -0.007236 1.3427e-16 4.1748e-17 2.16e-11 5.26426e-25 5.81792e-35
4255 1 0.000635 0.0111255 -0.00254 -0.007236 3.21291e-08 -2.42125e-08 -2.41772e-06 5.60095e-11 6.33506e-35
4339 1 0.000635 0.0122254 -0.003175 -0.007236 5.29276e-05 1.41502e-05 9.22283e-06 8.04051e-11 1.04438e-11
4424 1 0.000635 0.0133169 -0.00253946 -0.00709569 1.33173e-10 -9.85535e-11 -1.43407e-09 8.90887e-11 2.25698e-11
2451 1 0.000635 -0.0119714 -0.001905 -0.007236 -1.49611e-05 5.91686e-06 8.8588e-06 1.40436e-10 1.06128e-12
2536 1 0.000635 -0.0108715 -0.00127 -0.007236 -8.27021e-08 4.44299e-10 -3.61545e-06 1.24598e-10 6.33506e-35
2621 1 0.000635 -0.00977167 -0.001905 -0.007236 -1.44592e-16 -1.19229e-17 2.16e-11 5.26426e-25 6.39971e-35
2707 1 0.000635 -0.00867182 -0.00127 -0.007236 -7.2301e-17 5.96909e-18 2.16e-11 5.26426e-25 1.61609e-35
2792 1 0.000635 -0.00757197 -0.001905 -0.007236 1.44605e-16 -1.19229e-17 2.16e-11 0 3.29682e-35
2878 1 0.000635 -0.00647211 -0.00127 -0.007236 -1.44605e-16 1.19331e-17 2.16e-11 0 3.23218e-35
2963 1 0.000635 -0.00537226 -0.001905 -0.007236 1.44602e-16 -1.19246e-17 2.16e-11 0 3.29682e-35
3050 1 0.000635 -0.00427241 -0.00127 -0.007236 -1.13613e-16 5.96993e-18 2.16e-11 0 2.13324e-35
3136 1 0.000635 -0.00317256 -0.001905 -0.007236 4.13081e-17 -1.19229e-17 2.16e-11 0 5.81792e-36
3223 1 0.000635 -0.0020727 -0.00127 -0.007236 0 7.6233e-21 2.16e-11 0 0
3309 1 0.000635 -0.000972852 -0.001905 -0.007236 0 -1.19229e-17 2.16e-11 0 6.46435e-37
3396 1 0.000635 0.000127 -0.00127 -0.007236 0 6.77626e-21 2.16e-11 0 0
3482 1 0.000635 0.00122685 -0.001905 -0.007236 0 -1.19229e-17 2.16e-11 0 6.46435e-37
3569 1 0.000635 0.0023267 -0.00127 -0.007236 -6.77626e-21 6.77626e-21 2.16e-11 0 0
3655 1 0.000635 0.00342656 -0.001905 -0.007236 2.06608e-17 -1.19229e-17 2.16e-11 0 1.93931e-36
3742 1 0.000635 0.00452641 -0.00127 -0.007236 4.13149e-17 1.19331e-17 2.16e-11 5.26426e-25 1.93931e-35
3828 1 0.000635 0.00562626 -0.001905 -0.007236 -1.44599e-16 -1.19229e-17 2.16e-11 0 3.29682e-35
3914 1 0.000635 0.00672611 -0.00127 -0.007236 7.23078e-17 5.96909e-18 2.16e-11 5.26426e-25 1.61609e-35
3999 1 0.000635 0.00782597 -0.001905 -0.007236 -6.77626e-21 -1.19229e-17 2.16e-11 5.26426e-25 6.46435e-37
4085 1 0.000635 0.00892582 -0.00127 -0.007236 -6.77626e-21 6.77626e-21 2.16e-11 0 0
4170 1 0.000635 0.0100257 -0.001905 -0.007236 1.44599e-16 -1.19229e-17 2.16e-11 0 6.39971e-35
4256 1 0.000635 0.0111255 -0.00127 -0.007236 3.95778e-08 -1.19439e-08 -2.58906e-06 6.37403e-11 6.33506e-35
4340 1 0.000635 0.0122254 -0.001905 -0.007236 2.94764e-05 2.1289e-06 8.28131e-06 6.97597e-11 2.76118e-12
4425 1 0.000635 0.0133151 -0.0012698 -0.00708511 6.85483e-10 1.73523e-11 -5.30519e-09 7.71214e-11 5.50282e-12
2452 1 0.000635 -0.0119714 -0.000635 -0.007236 -1.57962e-05 1.89271e-06 8.86636e-06 1.40069e-10 8.56014e-13
2622 1 0.000635 -0.00977167 -0.000635 -0.007236 -1.44599e-16 -8.47033e-21 2.16e-11 0 6.33506e-35
2793 1 0.000635 -0.00757197 -0.000635 -0.007236 1.44604e-16 -1.19339e-17 2.16e-11 5.26426e-25 3.23218e-35
2964 1 0.000635 -0.00537226 -0.000635 -0.007236 1.44604e-16 -1.19365e-17 2.16e-11 0 3.23218e-35
3137 1 0.000635 -0.00317256 -0.000635 -0.007236 4.13183e-17 -8.47033e-21 2.16e-11 0 5.17148e-36
3310 1 0.000635 -0.000972852 -0.000635 -0.007236 0 -8.47033e-21 2.16e-11 0 0
3483 1 0.000635 0.00122685 -0.000635 -0.007236 0 -8.47033e-21 2.16e-11 0 0
3656 1 0.000635 0.00342656 -0.000635 -0.007236 3.09811e-17 -5.97078e-18 2.16e-11 5.26426e-25 3.23218e-36
3829 1 0.000635 0.00562626 -0.000635 -0.007236 -1.44597e-16 -1.19339e-17 2.16e-11 5.26426e-25 3.23218e-35
4000 1 0.000635 0.00782597 -0.000635 -0.007236 0 -8.47033e-21 2.16e-11 0 0
4171 1 0.000635 0.0100257 -0.000635 -0.007236 1.44599e-16 -8.47033e-21 2.16e-11 0 6.33506e-35
4341 1 0.000635 0.0122254 -0.000635 -0.007236 1.47909e-05 5.41748e-07 6.58135e-06 7.56857e-11 7.01009e-13
4426 1 0.000635 0.0133147 -1.44326e-15 -0.00708269 -1.98261e-09 -1.79773e-14 1.10355e-08 7.97034e-11 2.69759e-12
2453 1 0.000635 -0.0119714 0.000635 -0.007236 -1.57962e-05 -1.89271e-06 8.86636e-06 1.40069e-10 8.56014e-13
2537 1 0.000635 -0.0108715 0 -0.007236 -8.21033e-08 -1.4176e-16 -3.5987e-06 1.23428e-10 6.33506e-35
2623 1 0.000635 -0.00977167 0.000635 -0.007236 -1.44599e-16 -3.38813e-21 2.16e-11 0 6.33506e-35
2708 1 0.000635 -0.00867182 0 -0.007236 -8.26247e-17 5.92923e-21 2.16e-11 0 2.06859e-35
2794 1 0.000635 -0.00757197 0.000635 -0.007236 1.44602e-16 -3.38813e-21 2.16e-11 0 3.23218e-35
2879 1 0.000635 -0.00647211 0 -0.007236 -1.44605e-16 5.0822e-21 2.16e-11 0 3.23218e-35
2965 1 0.000635 -0.00537226 0.000635 -0.007236 1.44602e-16 -3.38813e-21 2.16e-11 0 3.23218e-35
3051 1 0.000635 -0.00427241 0 -0.007236 -1.03282e-16 5.92923e-21 2.16e-11 0 1.68073e-35
3138 1 0.000635 -0.00317256 0.000635 -0.007236 4.13149e-17 -3.38813e-21 2.16e-11 0 5.17148e-36
3224 1 0.000635 -0.0020727 0 -0.007236 0 6.77626e-21 2.16e-11 0 0
3311 1 0.000635 -0.000972852 0.000635 -0.007236 0 -3.38813e-21 2.16e-11 0 0
3397 1 0.000635 0.000127 0 -0.007236 0 6.77626e-21 2.16e-11 0 0
3484 1 0.000635 0.00122685 0.000635 -0.007236 0 -3.38813e-21 2.16e-11 0 0
3570 1 0.000635 0.0023267 0 -0.007236 -3.38813e-21 5.0822e-21 2.16e-11 5.26426e-25 0
3657 1 0.000635 0.00342656 0.000635 -0.007236 2.06574e-17 -3.38813e-21 2.16e-11 0 1.29287e-36
3743 1 0.000635 0.00452641 0 -0.007236 4.13132e-17 5.92923e-21 2.16e-11 0 1.29287e-35
3830 1 0.000635 0.00562626 0.000635 -0.007236 -1.44595e-16 -3.38813e-21 2.16e-11 0 3.23218e-35
3915 1 0.000635 0.00672611 0 -0.007236 8.26315e-17 5.92923e-21 2.16e-11 0 2.06859e-35
4001 1 0.000635 0.00782597 0.000635 -0.007236 0 -3.38813e-21 2.16e-11 0 0
4086 1 0.000635 0.00892582 0 -0.007236 -6.77626e-21 6.77626e-21 2.16e-11 0 0
4172 1 0.000635 0.0100257 0.000635 -0.007236 1.44599e-16 -3.38813e-21 2.16e-11 0 6.33506e-35
4257 1 0.000635 0.0111255 0 -0.007236 4.30067e-08 -1.43081e-17 -2.66116e-06 6.72238e-11 6.33506e-35
4342 1 0.000635 0.0122254 0.000635 -0.007236 1.47909e-05 -5.41748e-07 6.58135e-06 7.56857e-11 7.01009e-13
2454 1 0.000635 -0.0119714 0.001905 -0.007236 -1.49611e-05 -5.91686e-06 8.8588e-06 1.40436e-10 1.06128e-12
2538 1 0.000635 -0.0108715 0.00127 -0.007236 -8.27021e-08 -4.44299e-10 -3.61545e-06 1.24598e-10 6.33506e-35
2624 1 0.000635 -0.00977167 0.001905 -0.007236 -1.44595e-16 1.19221e-17 2.16e-11 0 6.39971e-35
2709 1 0.000635 -0.00867182 0.00127 -0.007236 -8.26264e-17 0 2.16e-11 0 2.06859e-35
2795 1 0.000635 -0.00757197 0.001905 -0.007236 1.44604e-16 1.19221e-17 2.16e-11 0 3.29682e-35
2880 1 0.000635 -0.00647211 0.00127 -0.007236 -1.44605e-16 0 2.16e-11 0 3.23218e-35
2966 1 0.000635 -0.00537226 0.001905 -0.007236 1.44604e-16 1.19238e-17 2.16e-11 0 3.29682e-35
3052 1 0.000635 -0.00427241 0.00127 -0.007236 -1.0328e-16 0 2.16e-11 0 1.68073e-35
3139 1 0.000635 -0.00317256 0.001905 -0.007236 4.13115e-17 1.19229e-17 2.16e-11 0 5.81792e-36
3225 1 0.000635 -0.0020727 0.00127 -0.007236 0 0 2.16e-11 0 0
3312 1 0.000635 -0.000972852 0.001905 -0.007236 0 1.19212e-17 2.16e-11 0 6.46435e-37
3398 1 0.000635 0.000127 0.00127 -0.007236 0 0 2.16e-11 0 0
3485 1 0.000635 0.00122685 0.001905 -0.007236 0 1.19212e-17 2.16e-11 0 6.46435e-37
3571 1 0.000635 0.0023267 0.00127 -0.007236 -6.77626e-21 0 2.16e-11 0 0
3658 1 0.000635 0.00342656 0.001905 -0.007236 2.06591e-17 1.19221e-17 2.16e-11 0 1.93931e-36
3744 1 0.000635 0.00452641 0.00127 -0.007236 4.13115e-17 0 2.16e-11 0 1.29287e-35
3831 1 0.000635 0.00562626 0.001905 -0.007236 -1.44597e-16 1.19221e-17 2.16e-11 0 3.29682e-35
3916 1 0.000635 0.00672611 0.00127 -0.007236 8.26331e-17 0 2.16e-11 0 2.06859e-35
4002 1 0.000635 0.00782597 0.001905 -0.007236 -3.38813e-21 1.19221e-17 2.16e-11 0 6.46435e-37
4087 1 0.000635 0.00892582 0.00127 -0.007236 -6.77626e-21 0 2.16e-11 0 0
4173 1 0.000635 0.0100257 0.001905 -0.007236 1.44599e-16 1.19212e-17 2.16e-11 0 6.39971e-35
4258 1 0.000635 0.0111255 0.00127 -0.007236 3.95778e-08 1.19439e-08 -2.58906e-06 6.37403e-11 6.33506e-35
4343 1 0.000635 0.0122254 0.001905 -0.007236 2.94764e-05 -2.1289e-06 8.28131e-06 6.97597e-11 2.76118e-12
4427 1 0.000635 0.0133151 0.0012698 -0.00708511 6.85535e-10 -1.73545e-11 -5.30519e-09 7.71214e-11 5.50282e-12
2455 1 0.000635 -0.0119714 0.003175 -0.007236 -2.19896e-05 -7.08922e-06 1.02808e-05 1.40238e-10 2.04324e-12
2539 1 0.000635 -0.0108715 0.00254 -0.007236 -8.27012e-08 2.47565e-09 -3.64176e-06 1.26435e-10 6.33506e-35
2625 1 0.000635 -0.00977167 0.003175 -0.007236 -1.3427e-16 -4.1748e-17 2.16e-11 5.26426e-25 5.81792e-35
2710 1 0.000635 -0.00867182 0.00254 -0.007236 -7.2301e-17 5.97417e-18 2.16e-11 0 1.61609e-35
2796 1 0.000635 -0.00757197 0.003175 -0.007236 1.44602e-16 -4.77053e-17 2.16e-11 5.26426e-25 3.55539e-35
2881 1 0.000635 -0.00647211 0.00254 -0.007236 -1.44605e-16 1.19365e-17 2.16e-11 0 3.23218e-35
2967 1 0.000635 -0.00537226 0.003175 -0.007236 1.44604e-16 -4.7707e-17 2.16e-11 0 3.55539e-35
3053 1 0.000635 -0.00427241 0.00254 -0.007236 -1.03284e-16 1.19373e-17 2.16e-11 5.26426e-25 1.93931e-35
3140 1 0.000635 -0.00317256 0.003175 -0.007236 3.09963e-17 -4.17472e-17 2.16e-11 1.05285e-24 6.46435e-36
3226 1 0.000635 -0.0020727 0.00254 -0.007236 0 1.43996e-20 2.16e-11 0 0
3313 1 0.000635 -0.000972852 0.003175 -0.007236 0 -3.57823e-17 2.16e-11 1.05285e-24 3.23218e-36
3399 1 0.000635 0.000127 0.00254 -0.007236 0 1.35525e-20 2.16e-11 0 0
3486 1 0.000635 0.00122685 0.003175 -0.007236 0 -3.57823e-17 2.16e-11 1.05285e-24 3.23218e-36
3572 1 0.000635 0.0023267 0.00254 -0.007236 -6.77626e-21 1.35525e-20 2.16e-11 0 0
3659 1 0.000635 0.00342656 0.003175 -0.007236 3.09777e-17 -4.17463e-17 2.16e-11 1.05285e-24 6.46435e-36
3745 1 0.000635 0.00452641 0.00254 -0.007236 4.13115e-17 1.19382e-17 2.16e-11 5.26426e-25 1.93931e-35
3832 1 0.000635 0.00562626 0.003175 -0.007236 -1.44595e-16 -4.77053e-17 2.16e-11 5.26426e-25 3.55539e-35
3917 1 0.000635 0.00672611 0.00254 -0.007236 7.23095e-17 5.97502e-18 2.16e-11 0 1.61609e-35
4003 1 0.000635 0.00782597 0.003175 -0.007236 0 -3.57823e-17 2.16e-11 1.05285e-24 3.23218e-36
4088 1 0.000635 0.00892582 0.00254 -0.007236 -8.47033e-21 1.27055e-20 2.16e-11 0 0
4174 1 0.000635 0.0100257 0.003175 -0.007236 1.3427e-16 -4.1748e-17 2.16e-11 5.26426e-25 5.81792e-35
4259 1 0.000635 0.0111255 0.00254 -0.007236 3.21291e-08 2.42125e-08 -2.41772e-06 5.60095e-11 6.33506e-35
4344 1 0.000635 0.0122254 0.003175 -0.007236 5.29276e-05 -1.41502e-05 9.22283e-06 8.04051e-11 1.04438e-11
4428 1 0.000635 0.0133169 0.00253946 -0.00709569 1.3311e-10 9.85807e-11 -1.43409e-09 8.90887e-11 2.25698e-11
2456 1 0.000635 -0.0119714 0.004445 -0.007236 -0.000122665 6.78239e-05 2.97964e-05 1.28214e-10 6.23915e-11
2540 1 0.000635 -0.0108715 0.00381 -0.007236 -6.65172e-08 3.66988e-08 -3.48456e-06 1.15874e-10 4.65433e-35
2626 1 0.000635 -0.00977167 0.004445 -0.007236 -1.77738e-09 -3.07852e-09 -3.15217e-07 1.87858e-12 6.01185e-35
2711 1 0.000635 -0.00867182 0.00381 -0.007236 -8.2623e-17 0 2.16e-11 1.05285e-24 2.06859e-35
2797 1 0.000635 -0.00757197 0.004445 -0.007236 1.44602e-16 5.96282e-17 2.16e-11 5.26426e-25 3.74932e-35
2882 1 0.000635 -0.00647211 0.00381 -0.007236 -1.44605e-16 0 2.16e-11 0 3.23218e-35
2968 1 0.000635 -0.00537226 0.004445 -0.007236 1.44604e-16 5.9629e-17 2.16e-11 5.26426e-25 3.74932e-35
3054 1 0.000635 -0.00427241 0.00381 -0.007236 -1.03291e-16 0 2.16e-11 0 1.68073e-35
3141 1 0.000635 -0.00317256 0.004445 -0.007236 3.09963e-17 5.36693e-17 2.16e-11 1.57928e-24 8.40366e-36
3227 1 0.000635 -0.0020727 0.00381 -0.007236 -6.77626e-21 0 2.16e-11 2.10571e-24 0
3314 1 0.000635 -0.000972852 0.004445 -0.007236 0 4.77053e-17 2.16e-11 1.05285e-24 5.17148e-36
3400 1 0.000635 0.000127 0.00381 -0.007236 0 0 2.16e-11 1.05285e-24 0
3487 1 0.000635 0.00122685 0.004445 -0.007236 0 4.77053e-17 2.16e-11 1.05285e-24 5.17148e-36
3573 1 0.000635 0.0023267 0.00381 -0.007236 0 0 2.16e-11 2.10571e-24 0
3660 1 0.000635 0.00342656 0.004445 -0.007236 3.09811e-17 5.36701e-17 2.16e-11 1.05285e-24 8.40366e-36
3746 1 0.000635 0.00452641 0.00381 -0.007236 4.13217e-17 0 2.16e-11 0 1.29287e-35
3833 1 0.000635 0.00562626 0.004445 -0.007236 -1.44597e-16 5.9629e-17 2.16e-11 5.26426e-25 3.74932e-35
3918 1 0.000635 0.00672611 0.00381 -0.007236 8.26298e-17 0 2.16e-11 1.05285e-24 2.06859e-35
4004 1 0.000635 0.00782597 0.004445 -0.007236 -3.38813e-21 4.77061e-17 2.16e-11 1.05285e-24 5.17148e-36
4089 1 0.000635 0.00892582 0.00381 -0.007236 -6.77626e-21 0 2.16e-11 1.05285e-24 0
4175 1 0.000635 0.0100257 0.004445 -0.007236 6.60361e-09 -1.14378e-08 -4.32776e-07 3.54441e-12 6.01185e-35
4260 1 0.000635 0.0111255 0.00381 -0.007236 3.85827e-08 4.0593e-09 -2.73017e-06 7.13894e-11 4.65433e-35
4345 1 0.000635 0.0122254 0.004445 -0.007236 6.27104e-05 3.97499e-05 8.80737e-06 6.52879e-10 5.36936e-11
4429 1 0.000635 0.0133193 0.00380893 -0.00711268 -3.68908e-10 1.30741e-10 2.46705e-09 4.31719e-10 6.36667e-11
2541 1 0.000635 -0.0108715 0.00508 -0.007236 -6.69951e-06 3.91712e-06 -2.14197e-06 8.41002e-11 2.67172e-13
2712 1 0.000635 -0.00867182 0.00508 -0.007236 -6.19774e-17 2.3845e-17 2.16e-11 0 1.42216e-35
2883 1 0.000635 -0.00647211 0.00508 -0.007236 -1.44605e-16 2.38442e-17 2.16e-11 0 3.49075e-35