ITEM: TIMESTEP
1620000
ITEM: NUMBER OF ATOMS
6793
ITEM: BOX BOUNDS ff ff ff
-8.9999999999999997e-02 8.9999999999999997e-02
-8.9999999999999997e-02 8.9999999999999997e-02
-4.0000000000000001e-02 4.0000000000000001e-02
ITEM: ATOMS id type radius x y z fx fy fz c_bendingE c_stretchingE
3213 1 0.000635 -0.00207192 -0.013955 -0.0173112 1.86032e-09 -2.38409e-09 -2.79338e-09 5.17388e-09 3.59091e-10
3299 1 0.000635 -0.000974666 -0.0145886 -0.0172663 2.20308e-09 -3.66509e-09 -6.71442e-10 4.7771e-09 1.02722e-10
3386 1 0.000635 0.000125664 -0.0139643 -0.0173687 4.81403e-10 1.48019e-09 1.15379e-08 3.5031e-09 4.13781e-11
3041 1 0.000635 -0.00426648 -0.012686 -0.0173157 -1.57038e-09 -1.46546e-09 -1.07654e-08 3.27831e-09 1.30077e-10
3127 1 0.000635 -0.00316857 -0.0133201 -0.0173163 -2.13938e-10 -2.41831e-09 -1.35249e-08 3.91172e-09 3.33228e-10
3214 1 0.000635 -0.0020727 -0.0127 -0.017496 -9.59532e-05 2.54394e-05 -7.64883e-06 4.4566e-09 7.84045e-11
3300 1 0.000635 -0.000973411 -0.0133355 -0.0174728 8.78196e-10 2.12625e-09 3.20335e-08 3.45692e-09 5.20961e-11
3387 1 0.000635 0.000127 -0.0127 -0.017496 -5.90949e-05 -5.47461e-05 1.08122e-06 3.48167e-10 1.94797e-11
3473 1 0.000635 0.0012257 -0.0133339 -0.0174407 2.09189e-09 -4.5901e-09 -2.55997e-08 4.39966e-10 1.54538e-10
3560 1 0.000635 0.0023267 -0.0127 -0.017496 7.04983e-05 -0.000229428 0.000111217 5.60383e-10 2.46045e-10
3733 1 0.000635 0.0045104 -0.0126684 -0.0172179 2.56915e-09 -8.07491e-09 -2.33299e-08 3.67472e-10 4.58335e-11
2870 1 0.000635 -0.00646362 -0.0114172 -0.0173148 -3.23152e-09 -3.5072e-09 -2.22054e-08 2.54619e-09 5.89305e-11
2955 1 0.000635 -0.00536488 -0.0120517 -0.0173151 1.20954e-09 -1.49433e-09 -8.0014e-09 2.84562e-09 6.18927e-11
3042 1 0.000635 -0.00427241 -0.01143 -0.017496 1.89286e-06 6.18859e-05 -1.74223e-05 2.55547e-09 1.80109e-11
3128 1 0.000635 -0.00317256 -0.012065 -0.017496 -3.83672e-05 9.21652e-05 -1.99471e-05 3.21693e-09 6.91904e-11
3215 1 0.000635 -0.0020727 -0.01143 -0.017496 3.35686e-08 -7.01151e-08 -3.22056e-06 9.86598e-11 5.17148e-36
3301 1 0.000635 -0.000972852 -0.012065 -0.017496 2.69286e-08 -3.67189e-05 -2.60848e-06 1.02794e-10 6.09411e-12
3388 1 0.000635 0.000127 -0.01143 -0.017496 1.17804e-08 1.69407e-21 -1.12212e-06 2.38588e-11 5.17148e-36
3474 1 0.000635 0.00122685 -0.012065 -0.017496 -2.64281e-08 -8.69321e-06 -5.06624e-06 3.78287e-10 3.15998e-13
3561 1 0.000635 0.0023267 -0.01143 -0.017496 2.4536e-07 -1.47699e-07 -6.69653e-06 4.71614e-10 5.17148e-36
3647 1 0.000635 0.00342656 -0.012065 -0.017496 6.08959e-05 4.60261e-05 -3.21315e-07 4.3075e-10 5.28354e-11
3734 1 0.000635 0.00452641 -0.01143 -0.017496 2.52778e-05 2.14429e-05 3.13177e-06 3.01496e-10 9.81819e-12
3820 1 0.000635 0.0056149 -0.0120436 -0.0172658 4.07752e-09 -1.22294e-08 -4.46064e-08 2.82918e-10 8.89035e-12
3906 1 0.000635 0.00671781 -0.0114149 -0.0173013 -7.30523e-09 1.40636e-08 6.24333e-08 2.3553e-10 1.90255e-12
2785 1 0.000635 -0.00756247 -0.0107825 -0.0173134 -2.37565e-09 -8.69625e-10 -5.58531e-09 2.3357e-09 8.74814e-11
2956 1 0.000635 -0.00537226 -0.010795 -0.017496 3.23198e-05 3.71821e-05 -1.52863e-05 2.11367e-09 9.10835e-12
3129 1 0.000635 -0.00317256 -0.010795 -0.017496 -5.41456e-10 -6.00221e-08 -3.18306e-06 9.63398e-11 6.46435e-36
3302 1 0.000635 -0.000972852 -0.010795 -0.017496 4.92199e-09 -3.38813e-21 -2.04874e-07 7.93888e-13 5.17148e-36
3475 1 0.000635 0.00122685 -0.010795 -0.017496 1.01354e-08 0 -4.8804e-07 4.50557e-12 5.17148e-36
3648 1 0.000635 0.00342656 -0.010795 -0.017496 1.61017e-07 -9.84117e-08 -5.16218e-06 2.68913e-10 1.0343e-35
3821 1 0.000635 0.00562626 -0.010795 -0.017496 1.28054e-05 1.19247e-05 3.4364e-06 2.19842e-10 2.69418e-12
3992 1 0.000635 0.00782034 -0.010785 -0.0173341 6.95609e-10 -4.20825e-09 -1.53343e-08 1.19656e-09 5.8115e-11
2615 1 0.000635 -0.00975843 -0.00951065 -0.017293 3.57678e-09 1.36852e-09 9.30396e-09 2.28503e-09 2.52618e-10
2700 1 0.000635 -0.00866101 -0.0101472 -0.0173078 1.77459e-09 2.98969e-09 1.64377e-08 2.22461e-09 1.36908e-10
2786 1 0.000635 -0.00757197 -0.009525 -0.017496 7.90608e-05 2.9307e-06 -1.23132e-05 1.4395e-09 4.74758e-11
2871 1 0.000635 -0.00647211 -0.01016 -0.017496 5.67537e-05 1.79503e-05 -1.35256e-05 1.76248e-09 2.17241e-11
2957 1 0.000635 -0.00537226 -0.009525 -0.017496 -3.84344e-08 -4.62611e-08 -3.20758e-06 9.78575e-11 3.74932e-35
3043 1 0.000635 -0.00427241 -0.01016 -0.017496 -2.22355e-08 -5.20673e-08 -3.18996e-06 9.67652e-11 2.71503e-35
3130 1 0.000635 -0.00317256 -0.009525 -0.017496 2.0671e-17 0 2.16e-11 1.05285e-24 6.46435e-36
3216 1 0.000635 -0.0020727 -0.01016 -0.017496 -6.77626e-21 0 2.16e-11 0 5.17148e-36
3303 1 0.000635 -0.000972852 -0.009525 -0.017496 0 0 2.16e-11 0 5.17148e-36
3389 1 0.000635 0.000127 -0.01016 -0.017496 0 0 2.16e-11 0 5.17148e-36
3476 1 0.000635 0.00122685 -0.009525 -0.017496 0 0 2.16e-11 0 5.17148e-36
3562 1 0.000635 0.0023267 -0.01016 -0.017496 0 0 2.16e-11 0 5.17148e-36
3649 1 0.000635 0.00342656 -0.009525 -0.017496 4.13115e-17 0 2.16e-11 0 1.0343e-35
3735 1 0.000635 0.00452641 -0.01016 -0.017496 1.01774e-07 -6.84592e-08 -4.17027e-06 1.717e-10 3.10289e-35
3822 1 0.000635 0.00562626 -0.009525 -0.017496 7.43129e-08 -4.49101e-08 -3.45794e-06 1.17478e-10 3.74932e-35
3907 1 0.000635 0.00672611 -0.01016 -0.017496 2.24434e-05 -6.77708e-06 5.86517e-06 1.73806e-10 3.25081e-12
3993 1 0.000635 0.00782597 -0.009525 -0.017496 1.85598e-05 -2.87203e-05 4.73191e-06 4.52729e-10 3.5473e-12
4078 1 0.000635 0.00892162 -0.01015 -0.0173451 -4.75659e-09 1.58933e-09 1.35042e-08 2.31835e-09 1.19013e-10
4164 1 0.000635 0.010001 -0.00949243 -0.0171992 6.7982e-09 -9.28655e-09 -2.75888e-08 2.09156e-09 2.56166e-10
2446 1 0.000635 -0.0119563 -0.00824554 -0.0172357 6.26374e-09 1.08165e-08 2.58352e-08 3.6208e-09 3.43953e-11
2530 1 0.000635 -0.010856 -0.00887661 -0.0172695 -6.3543e-09 -9.66736e-09 -4.07782e-08 2.66404e-09 1.08596e-10
2616 1 0.000635 -0.00977167 -0.008255 -0.017496 -3.37343e-05 -0.000102351 2.133e-05 7.925e-10 6.01148e-11
2701 1 0.000635 -0.00867182 -0.00889 -0.017496 0.00010655 -9.14816e-06 -1.27485e-05 1.11412e-09 9.32188e-11
2787 1 0.000635 -0.00757197 -0.008255 -0.017496 -5.8033e-08 -4.44487e-08 -3.40302e-06 1.10578e-10 4.0079e-35
2872 1 0.000635 -0.00647211 -0.00889 -0.017496 -4.98325e-08 -4.3376e-08 -3.2597e-06 1.01134e-10 3.74932e-35
2958 1 0.000635 -0.00537226 -0.008255 -0.017496 1.44607e-16 -7.15799e-17 2.16e-11 5.26426e-25 4.0079e-35
3044 1 0.000635 -0.00427241 -0.00889 -0.017496 -1.03289e-16 -4.76841e-17 2.16e-11 1.05285e-24 2.71503e-35
3131 1 0.000635 -0.00317256 -0.008255 -0.017496 3.09912e-17 -7.75431e-17 2.16e-11 5.26426e-25 1.87466e-35
3217 1 0.000635 -0.0020727 -0.00889 -0.017496 -3.38813e-21 -4.76866e-17 2.16e-11 0 5.17148e-36
3304 1 0.000635 -0.000972852 -0.008255 -0.017496 0 -7.15833e-17 2.16e-11 0 1.0343e-35
3390 1 0.000635 0.000127 -0.00889 -0.017496 0 -4.76866e-17 2.16e-11 0 5.17148e-36
3477 1 0.000635 0.00122685 -0.008255 -0.017496 0 -7.15833e-17 2.16e-11 0 1.0343e-35
3563 1 0.000635 0.0023267 -0.00889 -0.017496 0 -4.76858e-17 2.16e-11 0 5.17148e-36
3650 1 0.000635 0.00342656 -0.008255 -0.017496 4.13098e-17 -7.15825e-17 2.16e-11 0 1.0343e-35
3736 1 0.000635 0.00452641 -0.00889 -0.017496 4.13115e-17 -4.76841e-17 2.16e-11 0 3.10289e-35
3823 1 0.000635 0.00562626 -0.008255 -0.017496 -1.446e-16 -7.15791e-17 2.16e-11 0 4.0079e-35
3908 1 0.000635 0.00672611 -0.00889 -0.017496 4.44283e-08 -4.99551e-08 -3.04762e-06 8.97886e-11 1.68073e-35
3994 1 0.000635 0.00782597 -0.008255 -0.017496 -2.052e-08 -1.21524e-07 -4.05002e-06 1.70904e-10 1.0343e-35
4079 1 0.000635 0.00892582 -0.00889 -0.017496 -0.000105741 0.000111945 -3.71512e-05 1.15111e-09 8.49247e-11
4165 1 0.000635 0.0100257 -0.008255 -0.017496 0.000427479 7.60018e-05 0.000127388 1.64631e-09 1.12631e-09
2447 1 0.000635 -0.0119676 -0.00698381 -0.0173768 2.89595e-09 4.26096e-09 7.60331e-09 4.52016e-10 1.13486e-10
2531 1 0.000635 -0.0108709 -0.00761963 -0.0174484 5.55213e-11 -1.74794e-09 -2.05274e-08 5.43311e-10 2.16571e-11
2617 1 0.000635 -0.00977167 -0.006985 -0.017496 -6.58379e-06 -3.74102e-06 -2.56387e-06 1.08377e-10 2.51496e-13
2702 1 0.000635 -0.00867182 -0.00762 -0.017496 -7.83302e-08 -2.92892e-08 -3.65529e-06 1.28422e-10 2.9736e-35
2788 1 0.000635 -0.00757197 -0.006985 -0.017496 1.44605e-16 -2.38958e-17 2.16e-11 0 4.0079e-35
2873 1 0.000635 -0.00647211 -0.00762 -0.017496 -1.44609e-16 2.38967e-17 2.16e-11 0 4.0079e-35
2959 1 0.000635 -0.00537226 -0.006985 -0.017496 1.44605e-16 -2.38958e-17 2.16e-11 0 4.0079e-35
3045 1 0.000635 -0.00427241 -0.00762 -0.017496 -1.13623e-16 2.98573e-17 2.16e-11 0 2.90896e-35
3132 1 0.000635 -0.00317256 -0.006985 -0.017496 3.09912e-17 -2.98573e-17 2.16e-11 0 1.87466e-35
3218 1 0.000635 -0.0020727 -0.00762 -0.017496 -1.69407e-21 2.38958e-17 2.16e-11 0 1.0343e-35
3305 1 0.000635 -0.000972852 -0.006985 -0.017496 0 -2.38967e-17 2.16e-11 0 1.0343e-35
3391 1 0.000635 0.000127 -0.00762 -0.017496 0 2.38967e-17 2.16e-11 0 1.0343e-35
3478 1 0.000635 0.00122685 -0.006985 -0.017496 0 -2.38967e-17 2.16e-11 0 1.0343e-35
3564 1 0.000635 0.0023267 -0.00762 -0.017496 0 2.38967e-17 2.16e-11 0 1.0343e-35
3651 1 0.000635 0.00342656 -0.006985 -0.017496 4.13081e-17 -2.38967e-17 2.16e-11 0 1.0343e-35
3737 1 0.000635 0.00452641 -0.00762 -0.017496 4.13217e-17 2.38958e-17 2.16e-11 0 2.06859e-35
3824 1 0.000635 0.00562626 -0.006985 -0.017496 -1.44599e-16 -2.3895e-17 2.16e-11 0 4.0079e-35
3909 1 0.000635 0.00672611 -0.00762 -0.017496 6.19757e-17 2.38958e-17 2.16e-11 0 2.9736e-35
3995 1 0.000635 0.00782597 -0.006985 -0.017496 -6.77626e-21 -2.38967e-17 2.16e-11 0 1.0343e-35
4080 1 0.000635 0.00892582 -0.00762 -0.017496 -9.8505e-08 -2.34804e-07 -7.11758e-06 7.16831e-10 1.0343e-35
4166 1 0.000635 0.0100257 -0.006985 -0.017496 -0.000110866 6.32011e-05 -2.45396e-05 1.28085e-09 7.64796e-11
4251 1 0.000635 0.0111162 -0.00760902 -0.0173277 -1.65962e-09 1.20417e-09 1.20498e-08 2.02907e-09 1.75131e-09
2448 1 0.000635 -0.0119704 -0.00571563 -0.0174464 -4.32115e-09 3.94686e-10 -4.39583e-08 3.72043e-10 1.30528e-10
2532 1 0.000635 -0.0108715 -0.00635 -0.017496 -7.05374e-05 -8.1818e-05 9.05974e-06 1.55216e-10 4.43726e-11
2618 1 0.000635 -0.00977167 -0.005715 -0.017496 -3.85784e-09 6.68198e-09 -1.04941e-06 2.08591e-11 6.85221e-35
2703 1 0.000635 -0.00867182 -0.00635 -0.017496 -5.24935e-11 9.09213e-11 -4.2005e-07 3.33585e-12 2.9736e-35
2789 1 0.000635 -0.00757197 -0.005715 -0.017496 1.44602e-16 4.76832e-17 2.16e-11 0 3.74932e-35
2874 1 0.000635 -0.00647211 -0.00635 -0.017496 -1.44609e-16 7.15816e-17 2.16e-11 0 4.0079e-35
2960 1 0.000635 -0.00537226 -0.005715 -0.017496 1.44604e-16 4.76841e-17 2.16e-11 5.26426e-25 3.74932e-35
3046 1 0.000635 -0.00427241 -0.00635 -0.017496 -1.13621e-16 7.75431e-17 2.16e-11 0 2.90896e-35
3133 1 0.000635 -0.00317256 -0.005715 -0.017496 2.0671e-17 4.76858e-17 2.16e-11 5.26426e-25 6.46435e-36
3219 1 0.000635 -0.0020727 -0.00635 -0.017496 -5.0822e-21 7.15842e-17 2.16e-11 0 1.0343e-35
3306 1 0.000635 -0.000972852 -0.005715 -0.017496 0 4.76866e-17 2.16e-11 0 5.17148e-36
3392 1 0.000635 0.000127 -0.00635 -0.017496 0 7.1585e-17 2.16e-11 0 1.0343e-35
3479 1 0.000635 0.00122685 -0.005715 -0.017496 0 4.76866e-17 2.16e-11 0 5.17148e-36
3565 1 0.000635 0.0023267 -0.00635 -0.017496 0 7.15842e-17 2.16e-11 0 1.0343e-35
3652 1 0.000635 0.00342656 -0.005715 -0.017496 4.13098e-17 4.76858e-17 2.16e-11 0 1.0343e-35
3738 1 0.000635 0.00452641 -0.00635 -0.017496 4.13183e-17 7.15816e-17 2.16e-11 0 2.06859e-35
3825 1 0.000635 0.00562626 -0.005715 -0.017496 -1.44597e-16 4.76841e-17 2.16e-11 0 3.74932e-35
3910 1 0.000635 0.00672611 -0.00635 -0.017496 6.19774e-17 7.15825e-17 2.16e-11 0 2.9736e-35
3996 1 0.000635 0.00782597 -0.005715 -0.017496 -6.77626e-21 4.76849e-17 2.16e-11 0 5.17148e-36
4081 1 0.000635 0.00892582 -0.00635 -0.017496 -2.1341e-08 -3.69637e-08 -1.48691e-06 4.20024e-11 1.0343e-35
4167 1 0.000635 0.0100257 -0.005715 -0.017496 -6.66498e-08 -1.15441e-07 -4.1903e-06 3.44684e-10 6.85221e-35
4252 1 0.000635 0.0111255 -0.00635 -0.017496 -0.000398053 -1.04454e-05 -0.000103968 1.85037e-09 5.24623e-10
4337 1 0.000635 0.0122206 -0.00571803 -0.0174331 5.79616e-09 -3.46769e-09 -4.11984e-08 2.69219e-09 1.16018e-09
2533 1 0.000635 -0.0108715 -0.00508 -0.017496 -1.97764e-05 -1.15882e-05 -3.92986e-06 2.91775e-10 2.32262e-12
2704 1 0.000635 -0.00867182 -0.00508 -0.017496 -6.19774e-17 -2.3845e-17 2.16e-11 0 1.42216e-35
2875 1 0.000635 -0.00647211 -0.00508 -0.017496 -1.44605e-16 -2.38442e-17 2.16e-11 0 3.49075e-35
3047 1 0.000635 -0.00427241 -0.00508 -0.017496 -1.03287e-16 -2.38433e-17 2.16e-11 1.57928e-24 2.45645e-35
3220 1 0.000635 -0.0020727 -0.00508 -0.017496 -3.38813e-21 -2.38442e-17 2.16e-11 0 2.58574e-36
3393 1 0.000635 0.000127 -0.00508 -0.017496 0 -2.38442e-17 2.16e-11 0 2.58574e-36
3566 1 0.000635 0.0023267 -0.00508 -0.017496 -3.38813e-21 -2.38459e-17 2.16e-11 0 2.58574e-36
3739 1 0.000635 0.00452641 -0.00508 -0.017496 4.13081e-17 -2.38433e-17 2.16e-11 5.26426e-25 2.84431e-35
3911 1 0.000635 0.00672611 -0.00508 -0.017496 6.19859e-17 -2.38442e-17 2.16e-11 0 1.42216e-35
4082 1 0.000635 0.00892582 -0.00508 -0.017496 -8.47033e-21 -2.3845e-17 2.16e-11 0 2.58574e-36
4253 1 0.000635 0.0111255 -0.00508 -0.017496 -4.80834e-05 2.73758e-05 -1.26619e-05 1.25632e-09 1.42187e-11
4422 1 0.000635 0.0132938 -0.00507814 -0.0172238 6.92925e-10 3.78887e-09 -1.74398e-09 3.45588e-09 2.91042e-10
2449 1 0.000635 -0.0119714 -0.004445 -0.017496 -0.000178872 -0.000124355 7.39256e-05 4.58826e-10 1.56772e-10
2534 1 0.000635 -0.0108715 -0.00381 -0.017496 -2.23091e-07 -1.21511e-07 -6.23871e-06 3.78103e-10 4.65433e-35
2619 1 0.000635 -0.00977167 -0.004445 -0.017496 -4.63301e-09 8.02462e-09 -4.37181e-07 3.61521e-12 6.01185e-35
2705 1 0.000635 -0.00867182 -0.00381 -0.017496 -8.2623e-17 0 2.16e-11 1.05285e-24 2.06859e-35
2790 1 0.000635 -0.00757197 -0.004445 -0.017496 1.44602e-16 -5.96282e-17 2.16e-11 5.26426e-25 3.74932e-35
2876 1 0.000635 -0.00647211 -0.00381 -0.017496 -1.44605e-16 0 2.16e-11 0 3.23218e-35
2961 1 0.000635 -0.00537226 -0.004445 -0.017496 1.44604e-16 -5.9629e-17 2.16e-11 5.26426e-25 3.74932e-35
3048 1 0.000635 -0.00427241 -0.00381 -0.017496 -1.03291e-16 0 2.16e-11 0 1.68073e-35
3134 1 0.000635 -0.00317256 -0.004445 -0.017496 3.09963e-17 -5.36693e-17 2.16e-11 1.57928e-24 8.40366e-36
3221 1 0.000635 -0.0020727 -0.00381 -0.017496 -6.77626e-21 0 2.16e-11 2.10571e-24 0
3307 1 0.000635 -0.000972852 -0.004445 -0.017496 0 -4.77053e-17 2.16e-11 1.05285e-24 5.17148e-36
3394 1 0.000635 0.000127 -0.00381 -0.017496 0 0 2.16e-11 1.05285e-24 0
3480 1 0.000635 0.00122685 -0.004445 -0.017496 0 -4.77053e-17 2.16e-11 1.05285e-24 5.17148e-36
3567 1 0.000635 0.0023267 -0.00381 -0.017496 0 0 2.16e-11 2.10571e-24 0
3653 1 0.000635 0.00342656 -0.004445 -0.017496 3.09811e-17 -5.36701e-17 2.16e-11 1.05285e-24 8.40366e-36
3740 1 0.000635 0.00452641 -0.00381 -0.017496 4.13217e-17 7.70372e-34 2.16e-11 0 1.29287e-35
3826 1 0.000635 0.00562626 -0.004445 -0.017496 -1.44597e-16 -5.9629e-17 2.16e-11 5.26426e-25 3.74932e-35
3912 1 0.000635 0.00672611 -0.00381 -0.017496 8.26298e-17 0 2.16e-11 1.05285e-24 2.06859e-35
3997 1 0.000635 0.00782597 -0.004445 -0.017496 -3.38813e-21 -4.77061e-17 2.16e-11 1.05285e-24 5.17148e-36
4083 1 0.000635 0.00892582 -0.00381 -0.017496 -6.77626e-21 0 2.16e-11 1.05285e-24 0
4168 1 0.000635 0.0100257 -0.004445 -0.017496 2.20505e-08 3.81925e-08 -5.55194e-07 5.86584e-12 6.01185e-35
4254 1 0.000635 0.0111255 -0.00381 -0.017496 1.45712e-07 -3.70768e-08 -4.89798e-06 2.30405e-10 4.65433e-35
4338 1 0.000635 0.0122254 -0.004445 -0.017496 0.000148643 -0.000242596 4.66828e-05 2.84862e-09 3.62639e-10
4423 1 0.000635 0.0132936 -0.0038086 -0.017229 6.48402e-09 2.89797e-09 -2.28195e-08 2.10008e-09 1.16197e-10
2450 1 0.000635 -0.0119714 -0.003175 -0.017496 4.14615e-05 7.78928e-05 -5.31934e-06 5.21738e-10 6.07295e-11
2535 1 0.000635 -0.0108715 -0.00254 -0.017496 -2.76726e-07 -2.36821e-08 -6.56328e-06 4.19192e-10 6.33506e-35
2620 1 0.000635 -0.00977167 -0.003175 -0.017496 -1.3427e-16 4.1748e-17 2.16e-11 5.26426e-25 5.81792e-35
2706 1 0.000635 -0.00867182 -0.00254 -0.017496 -7.2301e-17 -5.97417e-18 2.16e-11 0 1.61609e-35
2791 1 0.000635 -0.00757197 -0.003175 -0.017496 1.44602e-16 4.77053e-17 2.16e-11 5.26426e-25 3.55539e-35
2877 1 0.000635 -0.00647211 -0.00254 -0.017496 -1.44605e-16 -1.19365e-17 2.16e-11 0 3.23218e-35
2962 1 0.000635 -0.00537226 -0.003175 -0.017496 1.44604e-16 4.7707e-17 2.16e-11 0 3.55539e-35
3049 1 0.000635 -0.00427241 -0.00254 -0.017496 -1.03284e-16 -1.19373e-17 2.16e-11 5.26426e-25 1.93931e-35
3135 1 0.000635 -0.00317256 -0.003175 -0.017496 3.09963e-17 4.17472e-17 2.16e-11 1.05285e-24 6.46435e-36
3222 1 0.000635 -0.0020727 -0.00254 -0.017496 0 -1.43996e-20 2.16e-11 0 0
3308 1 0.000635 -0.000972852 -0.003175 -0.017496 0 3.57823e-17 2.16e-11 1.05285e-24 3.23218e-36
3395 1 0.000635 0.000127 -0.00254 -0.017496 0 -1.35525e-20 2.16e-11 0 0
3481 1 0.000635 0.00122685 -0.003175 -0.017496 0 3.57823e-17 2.16e-11 1.05285e-24 3.23218e-36
3568 1 0.000635 0.0023267 -0.00254 -0.017496 -6.77626e-21 -1.35525e-20 2.16e-11 0 0
3654 1 0.000635 0.00342656 -0.003175 -0.017496 3.09777e-17 4.17463e-17 2.16e-11 1.05285e-24 6.46435e-36
3741 1 0.000635 0.00452641 -0.00254 -0.017496 4.13115e-17 -1.19382e-17 2.16e-11 5.26426e-25 1.93931e-35
3827 1 0.000635 0.00562626 -0.003175 -0.017496 -1.44595e-16 4.77053e-17 2.16e-11 5.26426e-25 3.55539e-35
3913 1 0.000635 0.00672611 -0.00254 -0.017496 7.23095e-17 -5.97502e-18 2.16e-11 0 1.61609e-35
3998 1 0.000635 0.00782597 -0.003175 -0.017496 0 3.57823e-17 2.16e-11 1.05285e-24 3.23218e-36
4084 1 0.000635 0.00892582 -0.00254 -0.017496 -8.47033e-21 -1.27055e-20 2.16e-11 0 0
4169 1 0.000635 0.0100257 -0.003175 -0.017496 1.3427e-16 4.1748e-17 2.16e-11 5.26426e-25 5.81792e-35
4255 1 0.000635 0.0111255 -0.00254 -0.017496 1.45846e-07 -2.99458e-08 -4.83931e-06 2.24935e-10 6.33506e-35
4339 1 0.000635 0.0122254 -0.003175 -0.017496 4.4847e-05 3.87653e-06 1.83393e-05 2.9463e-10 6.77585e-12
4424 1 0.000635 0.0132883 -0.00253941 -0.0172124 3.5812e-09 3.0976e-09 -1.39225e-08 3.26342e-10 1.46173e-11
2451 1 0.000635 -0.0119714 -0.001905 -0.017496 6.9813e-06 3.59807e-05 8.13478e-06 4.95414e-10 1.18558e-11
2536 1 0.000635 -0.0108715 -0.00127 -0.017496 -2.7754e-07 -1.6705e-08 -6.55194e-06 4.17752e-10 6.33506e-35
2621 1 0.000635 -0.00977167 -0.001905 -0.017496 -1.44592e-16 -1.19229e-17 2.16e-11 5.26426e-25 6.39971e-35
2707 1 0.000635 -0.00867182 -0.00127 -0.017496 -7.2301e-17 5.96909e-18 2.16e-11 5.26426e-25 1.61609e-35
2792 1 0.000635 -0.00757197 -0.001905 -0.017496 1.44605e-16 -1.19229e-17 2.16e-11 0 3.29682e-35
2878 1 0.000635 -0.00647211 -0.00127 -0.017496 -1.44605e-16 1.19331e-17 2.16e-11 0 3.23218e-35
2963 1 0.000635 -0.00537226 -0.001905 -0.017496 1.44602e-16 -1.19246e-17 2.16e-11 0 3.29682e-35
3050 1 0.000635 -0.00427241 -0.00127 -0.017496 -1.13613e-16 5.96993e-18 2.16e-11 0 2.13324e-35
3136 1 0.000635 -0.00317256 -0.001905 -0.017496 4.13081e-17 -1.19229e-17 2.16e-11 0 5.81792e-36
3223 1 0.000635 -0.0020727 -0.00127 -0.017496 0 7.6233e-21 2.16e-11 0 0
3309 1 0.000635 -0.000972852 -0.001905 -0.017496 0 -1.19229e-17 2.16e-11 0 6.46435e-37
3396 1 0.000635 0.000127 -0.00127 -0.017496 0 6.77626e-21 2.16e-11 0 0
3482 1 0.000635 0.00122685 -0.001905 -0.017496 0 -1.19229e-17 2.16e-11 0 6.46435e-37
3569 1 0.000635 0.0023267 -0.00127 -0.017496 -6.77626e-21 6.77626e-21 2.16e-11 0 0
3655 1 0.000635 0.00342656 -0.001905 -0.017496 2.06608e-17 -1.19229e-17 2.16e-11 0 1.93931e-36
3742 1 0.000635 0.00452641 -0.00127 -0.017496 4.13149e-17 1.19331e-17 2.16e-11 5.26426e-25 1.93931e-35
3828 1 0.000635 0.00562626 -0.001905 -0.017496 -1.44599e-16 -1.19229e-17 2.16e-11 0 3.29682e-35
3914 1 0.000635 0.00672611 -0.00127 -0.017496 7.23078e-17 5.96909e-18 2.16e-11 5.26426e-25 1.61609e-35
3999 1 0.000635 0.00782597 -0.001905 -0.017496 -6.77626e-21 -1.19229e-17 2.16e-11 5.26426e-25 6.46435e-37
4085 1 0.000635 0.00892582 -0.00127 -0.017496 -6.77626e-21 6.77626e-21 2.16e-11 0 0
4170 1 0.000635 0.0100257 -0.001905 -0.017496 1.44599e-16 -1.19229e-17 2.16e-11 0 6.39971e-35
4256 1 0.000635 0.0111255 -0.00127 -0.017496 1.58954e-07 -1.42849e-09 -4.97324e-06 2.37643e-10 6.33506e-35
4340 1 0.000635 0.0122254 -0.001905 -0.017496 6.50433e-06 6.07797e-06 9.58892e-06 2.8812e-10 5.04967e-13
4425 1 0.000635 0.0132886 -0.00126978 -0.0172142 5.69247e-09 1.74378e-09 -1.81797e-08 3.17226e-10 3.30068e-12
2452 1 0.000635 -0.0119714 -0.000635 -0.017496 -2.05622e-06 1.03841e-05 1.17658e-05 4.80545e-10 1.01766e-12
2622 1 0.000635 -0.00977167 -0.000635 -0.017496 -1.44599e-16 -8.47033e-21 2.16e-11 0 6.33506e-35
2793 1 0.000635 -0.00757197 -0.000635 -0.017496 1.44604e-16 -1.19339e-17 2.16e-11 5.26426e-25 3.23218e-35
2964 1 0.000635 -0.00537226 -0.000635 -0.017496 1.44604e-16 -1.19365e-17 2.16e-11 0 3.23218e-35
3137 1 0.000635 -0.00317256 -0.000635 -0.017496 4.13183e-17 -8.47033e-21 2.16e-11 0 5.17148e-36
3310 1 0.000635 -0.000972852 -0.000635 -0.017496 0 -8.47033e-21 2.16e-11 0 0
3483 1 0.000635 0.00122685 -0.000635 -0.017496 0 -8.47033e-21 2.16e-11 0 0
3656 1 0.000635 0.00342656 -0.000635 -0.017496 3.09811e-17 -5.97078e-18 2.16e-11 5.26426e-25 3.23218e-36
3829 1 0.000635 0.00562626 -0.000635 -0.017496 -1.44597e-16 -1.19339e-17 2.16e-11 5.26426e-25 3.23218e-35
4000 1 0.000635 0.00782597 -0.000635 -0.017496 0 -8.47033e-21 2.16e-11 0 0
4171 1 0.000635 0.0100257 -0.000635 -0.017496 1.44599e-16 -8.47033e-21 2.16e-11 0 6.33506e-35
4341 1 0.000635 0.0122254 -0.000635 -0.017496 8.23912e-07 2.57128e-06 7.66253e-06 2.99809e-10 6.66891e-14
2453 1 0.000635 -0.0119714 0.000635 -0.017496 -2.05637e-06 -1.03841e-05 1.17659e-05 4.80545e-10 1.01766e-12
2537 1 0.000635 -0.0108715 0 -0.017496 -2.79259e-07 -5.38381e-13 -6.56495e-06 4.19458e-10 6.33506e-35
2623 1 0.000635 -0.00977167 0.000635 -0.017496 -1.44599e-16 -3.38813e-21 2.16e-11 0 6.33506e-35
2708 1 0.000635 -0.00867182 0 -0.017496 -8.26247e-17 5.92923e-21 2.16e-11 0 2.06859e-35
2794 1 0.000635 -0.00757197 0.000635 -0.017496 1.44602e-16 -3.38813e-21 2.16e-11 0 3.23218e-35
2879 1 0.000635 -0.00647211 0 -0.017496 -1.44605e-16 5.0822e-21 2.16e-11 0 3.23218e-35
2965 1 0.000635 -0.00537226 0.000635 -0.017496 1.44602e-16 -3.38813e-21 2.16e-11 0 3.23218e-35
3051 1 0.000635 -0.00427241 0 -0.017496 -1.03282e-16 5.92923e-21 2.16e-11 0 1.68073e-35
3138 1 0.000635 -0.00317256 0.000635 -0.017496 4.13149e-17 -3.38813e-21 2.16e-11 0 5.17148e-36
3224 1 0.000635 -0.0020727 0 -0.017496 0 6.77626e-21 2.16e-11 0 0
3311 1 0.000635 -0.000972852 0.000635 -0.017496 0 -3.38813e-21 2.16e-11 0 0
3397 1 0.000635 0.000127 0 -0.017496 0 6.77626e-21 2.16e-11 0 0
3484 1 0.000635 0.00122685 0.000635 -0.017496 0 -3.38813e-21 2.16e-11 0 0
3570 1 0.000635 0.0023267 0 -0.017496 -3.38813e-21 5.0822e-21 2.16e-11 5.26426e-25 0
3657 1 0.000635 0.00342656 0.000635 -0.017496 2.06574e-17 -3.38813e-21 2.16e-11 0 1.29287e-36
3743 1 0.000635 0.00452641 0 -0.017496 4.13132e-17 5.92923e-21 2.16e-11 0 1.29287e-35
3830 1 0.000635 0.00562626 0.000635 -0.017496 -1.44595e-16 -3.38813e-21 2.16e-11 0 3.23218e-35
3915 1 0.000635 0.00672611 0 -0.017496 8.26315e-17 5.92923e-21 2.16e-11 0 2.06859e-35
4001 1 0.000635 0.00782597 0.000635 -0.017496 0 -3.38813e-21 2.16e-11 0 0
4086 1 0.000635 0.00892582 0 -0.017496 -6.77626e-21 6.77626e-21 2.16e-11 0 0
4172 1 0.000635 0.0100257 0.000635 -0.017496 1.44599e-16 -3.38813e-21 2.16e-11 0 6.33506e-35
4257 1 0.000635 0.0111255 0 -0.017496 1.59794e-07 -2.28708e-15 -4.97062e-06 2.37391e-10 6.33506e-35
4342 1 0.000635 0.0122254 0.000635 -0.017496 8.23906e-07 -2.57128e-06 7.66253e-06 2.99809e-10 6.66891e-14
4426 1 0.000635 0.013289 5.98898e-14 -0.0172157 -4.96132e-09 -1.11209e-14 1.43143e-08 3.20562e-10 1.55206e-12
2454 1 0.000635 -0.0119714 0.001905 -0.017496 6.98103e-06 -3.59809e-05 8.13491e-06 4.95414e-10 1.18559e-11
2538 1 0.000635 -0.0108715 0.00127 -0.017496 -2.7754e-07 1.6704e-08 -6.55195e-06 4.17753e-10 6.33506e-35
2624 1 0.000635 -0.00977167 0.001905 -0.017496 -1.44595e-16 1.19221e-17 2.16e-11 0 6.39971e-35
2709 1 0.000635 -0.00867182 0.00127 -0.017496 -8.26264e-17 0 2.16e-11 0 2.06859e-35
2795 1 0.000635 -0.00757197 0.001905 -0.017496 1.44604e-16 1.19221e-17 2.16e-11 0 3.29682e-35
2880 1 0.000635 -0.00647211 0.00127 -0.017496 -1.44605e-16 0 2.16e-11 0 3.23218e-35
2966 1 0.000635 -0.00537226 0.001905 -0.017496 1.44604e-16 1.19238e-17 2.16e-11 0 3.29682e-35
3052 1 0.000635 -0.00427241 0.00127 -0.017496 -1.0328e-16 0 2.16e-11 0 1.68073e-35
3139 1 0.000635 -0.00317256 0.001905 -0.017496 4.13115e-17 1.19229e-17 2.16e-11 0 5.81792e-36
3225 1 0.000635 -0.0020727 0.00127 -0.017496 0 0 2.16e-11 0 0
3312 1 0.000635 -0.000972852 0.001905 -0.017496 0 1.19212e-17 2.16e-11 0 6.46435e-37
3398 1 0.000635 0.000127 0.00127 -0.017496 0 0 2.16e-11 0 0
3485 1 0.000635 0.00122685 0.001905 -0.017496 0 1.19212e-17 2.16e-11 0 6.46435e-37
3571 1 0.000635 0.0023267 0.00127 -0.017496 -6.77626e-21 0 2.16e-11 0 0
3658 1 0.000635 0.00342656 0.001905 -0.017496 2.06591e-17 1.19221e-17 2.16e-11 0 1.93931e-36
3744 1 0.000635 0.00452641 0.00127 -0.017496 4.13115e-17 0 2.16e-11 0 1.29287e-35
3831 1 0.000635 0.00562626 0.001905 -0.017496 -1.44597e-16 1.19221e-17 2.16e-11 0 3.29682e-35
3916 1 0.000635 0.00672611 0.00127 -0.017496 8.26331e-17 0 2.16e-11 0 2.06859e-35
4002 1 0.000635 0.00782597 0.001905 -0.017496 -3.38813e-21 1.19221e-17 2.16e-11 0 6.46435e-37
4087 1 0.000635 0.00892582 0.00127 -0.017496 -6.77626e-21 0 2.16e-11 0 0
4173 1 0.000635 0.0100257 0.001905 -0.017496 1.44599e-16 1.19212e-17 2.16e-11 0 6.39971e-35
4258 1 0.000635 0.0111255 0.00127 -0.017496 1.58954e-07 1.42849e-09 -4.97324e-06 2.37643e-10 6.33506e-35
4343 1 0.000635 0.0122254 0.001905 -0.017496 6.50432e-06 -6.07796e-06 9.58891e-06 2.8812e-10 5.04965e-13
4427 1 0.000635 0.0132886 0.00126978 -0.0172142 5.69309e-09 -1.74347e-09 -1.81817e-08 3.17226e-10 3.30068e-12
2455 1 0.000635 -0.0119714 0.003175 -0.017496 4.14615e-05 -7.78932e-05 -5.31933e-06 5.21739e-10 6.07301e-11
2539 1 0.000635 -0.0108715 0.00254 -0.017496 -2.76727e-07 2.36811e-08 -6.56329e-06 4.19194e-10 6.33506e-35
2625 1 0.000635 -0.00977167 0.003175 -0.017496 -1.3427e-16 -4.1748e-17 2.16e-11 5.26426e-25 5.81792e-35
2710 1 0.000635 -0.00867182 0.00254 -0.017496 -7.2301e-17 5.97417e-18 2.16e-11 0 1.61609e-35
2796 1 0.000635 -0.00757197 0.003175 -0.017496 1.44602e-16 -4.77053e-17 2.16e-11 5.26426e-25 3.55539e-35
2881 1 0.000635 -0.00647211 0.00254 -0.017496 -1.44605e-16 1.19365e-17 2.16e-11 0 3.23218e-35
2967 1 0.000635 -0.00537226 0.003175 -0.017496 1.44604e-16 -4.7707e-17 2.16e-11 0 3.55539e-35
3053 1 0.000635 -0.00427241 0.00254 -0.017496 -1.03284e-16 1.19373e-17 2.16e-11 5.26426e-25 1.93931e-35
3140 1 0.000635 -0.00317256 0.003175 -0.017496 3.09963e-17 -4.17472e-17 2.16e-11 1.05285e-24 6.46435e-36
3226 1 0.000635 -0.0020727 0.00254 -0.017496 0 1.43996e-20 2.16e-11 0 0
3313 1 0.000635 -0.000972852 0.003175 -0.017496 0 -3.57823e-17 2.16e-11 1.05285e-24 3.23218e-36
3399 1 0.000635 0.000127 0.00254 -0.017496 0 1.35525e-20 2.16e-11 0 0
3486 1 0.000635 0.00122685 0.003175 -0.017496 0 -3.57823e-17 2.16e-11 1.05285e-24 3.23218e-36
3572 1 0.000635 0.0023267 0.00254 -0.017496 -6.77626e-21 1.35525e-20 2.16e-11 0 0
3659 1 0.000635 0.00342656 0.003175 -0.017496 3.09777e-17 -4.17463e-17 2.16e-11 1.05285e-24 6.46435e-36
3745 1 0.000635 0.00452641 0.00254 -0.017496 4.13115e-17 1.19382e-17 2.16e-11 5.26426e-25 1.93931e-35
3832 1 0.000635 0.00562626 0.003175 -0.017496 -1.44595e-16 -4.77053e-17 2.16e-11 5.26426e-25 3.55539e-35
3917 1 0.000635 0.00672611 0.00254 -0.017496 7.23095e-17 5.97502e-18 2.16e-11 0 1.61609e-35
4003 1 0.000635 0.00782597 0.003175 -0.017496 0 -3.57823e-17 2.16e-11 1.05285e-24 3.23218e-36
4088 1 0.000635 0.00892582 0.00254 -0.017496 -8.47033e-21 1.27055e-20 2.16e-11 0 0
4174 1 0.000635 0.0100257 0.003175 -0.017496 1.3427e-16 -4.1748e-17 2.16e-11 5.26426e-25 5.81792e-35
4259 1 0.000635 0.0111255 0.00254 -0.017496 1.45846e-07 2.99458e-08 -4.83931e-06 2.24935e-10 6.33506e-35
4344 1 0.000635 0.0122254 0.003175 -0.017496 4.4847e-05 -3.87651e-06 1.83393e-05 2.9463e-10 6.77585e-12
4428 1 0.000635 0.0132883 0.00253941 -0.0172124 3.58085e-09 -3.09768e-09 -1.39216e-08 3.26342e-10 1.46173e-11
2456 1 0.000635 -0.0119714 0.004445 -0.017496 -0.000178873 0.000124355 7.39261e-05 4.58827e-10 1.56773e-10
2540 1 0.000635 -0.0108715 0.00381 -0.017496 -2.23092e-07 1.21512e-07 -6.23872e-06 3.78105e-10 4.65433e-35
2626 1 0.000635 -0.00977167 0.004445 -0.017496 -4.63301e-09 -8.02462e-09 -4.37181e-07 3.61522e-12 6.01185e-35
2711 1 0.000635 -0.00867182 0.00381 -0.017496 -8.2623e-17 0 2.16e-11 1.05285e-24 2.06859e-35
2797 1 0.000635 -0.00757197 0.004445 -0.017496 1.44602e-16 5.96282e-17 2.16e-11 5.26426e-25 3.74932e-35
2882 1 0.000635 -0.00647211 0.00381 -0.017496 -1.44605e-16 0 2.16e-11 0 3.23218e-35
2968 1 0.000635 -0.00537226 0.004445 -0.017496 1.44604e-16 5.9629e-17 2.16e-11 5.26426e-25 3.74932e-35
3054 1 0.000635 -0.00427241 0.00381 -0.017496 -1.03291e-16 0 2.16e-11 0 1.68073e-35
3141 1 0.000635 -0.00317256 0.004445 -0.017496 3.09963e-17 5.36693e-17 2.16e-11 1.57928e-24 8.40366e-36
3227 1 0.000635 -0.0020727 0.00381 -0.017496 -6.77626e-21 0 2.16e-11 2.10571e-24 0
3314 1 0.000635 -0.000972852 0.004445 -0.017496 0 4.77053e-17 2.16e-11 1.05285e-24 5.17148e-36
3400 1 0.000635 0.000127 0.00381 -0.017496 0 0 2.16e-11 1.05285e-24 0
3487 1 0.000635 0.00122685 0.004445 -0.017496 0 4.77053e-17 2.16e-11 1.05285e-24 5.17148e-36
3573 1 0.000635 0.0023267 0.00381 -0.017496 0 0 2.16e-11 2.10571e-24 0
3660 1 0.000635 0.00342656 0.004445 -0.017496 3.09811e-17 5.36701e-17 2.16e-11 1.05285e-24 8.40366e-36
3746 1 0.000635 0.00452641 0.00381 -0.017496 4.13217e-17 0 2.16e-11 0 1.29287e-35
3833 1 0.000635 0.00562626 0.004445 -0.017496 -1.44597e-16 5.9629e-17 2.16e-11 5.26426e-25 3.74932e-35
3918 1 0.000635 0.00672611 0.00381 -0.017496 8.26298e-17 0 2.16e-11 1.05285e-24 2.06859e-35
4004 1 0.000635 0.00782597 0.004445 -0.017496 -3.38813e-21 4.77061e-17 2.16e-11 1.05285e-24 5.17148e-36
4089 1 0.000635 0.00892582 0.00381 -0.017496 -6.77626e-21 0 2.16e-11 1.05285e-24 0