ITEM: TIMESTEP
1840000
ITEM: NUMBER OF ATOMS
6793
ITEM: BOX BOUNDS ff ff ff
-8.9999999999999997e-02 8.9999999999999997e-02
-8.9999999999999997e-02 8.9999999999999997e-02
-4.0000000000000001e-02 4.0000000000000001e-02
ITEM: ATOMS id type radius x y z fx fy fz c_bendingE c_stretchingE
3213 1 0.000635 -0.00207174 -0.0139539 -0.0196787 1.61006e-10 4.66446e-10 4.75831e-10 5.96311e-09 3.64527e-10
3299 1 0.000635 -0.000974393 -0.0145863 -0.0196236 -1.18236e-10 7.24537e-10 7.05816e-10 5.49582e-09 1.10377e-10
3386 1 0.000635 0.00012572 -0.0139627 -0.0197303 1.63213e-10 -5.77419e-10 -3.79325e-09 4.00517e-09 4.32207e-11
3041 1 0.000635 -0.00426672 -0.0126861 -0.0196932 -1.38911e-10 1.74907e-10 5.8047e-10 3.86824e-09 1.40196e-10
3127 1 0.000635 -0.00316854 -0.0133196 -0.0196896 -1.95905e-10 4.39693e-11 -1.5326e-10 4.56844e-09 3.64568e-10
3214 1 0.000635 -0.0020727 -0.0127 -0.019872 -9.48191e-05 1.05735e-05 -6.11707e-06 5.14708e-09 7.98678e-11
3300 1 0.000635 -0.000973324 -0.0133354 -0.0198443 3.19752e-11 -4.85526e-10 -6.49758e-09 4.04462e-09 4.99763e-11
3387 1 0.000635 0.000127 -0.0127 -0.019872 -5.39321e-05 -5.24742e-05 1.10705e-06 4.32937e-10 1.69802e-11
3473 1 0.000635 0.00122574 -0.0133337 -0.0198119 -3.39923e-11 1.92399e-10 5.22146e-10 5.4909e-10 1.61099e-10
3560 1 0.000635 0.0023267 -0.0127 -0.019872 8.53836e-05 -0.000223942 0.00012245 6.85743e-10 2.72599e-10
3646 1 0.000635 0.00339771 -0.0132743 -0.0194906 -2.23744e-10 7.14515e-10 1.68817e-09 6.71456e-10 3.33475e-10
3733 1 0.000635 0.00450814 -0.0126643 -0.0195767 -1.01653e-10 3.86404e-10 1.21172e-09 4.34302e-10 4.96616e-11
2870 1 0.000635 -0.00646421 -0.0114181 -0.0196973 2.51219e-12 9.24341e-11 8.33286e-10 3.04047e-09 5.77643e-11
2955 1 0.000635 -0.00536532 -0.0120523 -0.0196957 5.78663e-11 2.0502e-10 1.24413e-09 3.38064e-09 6.41886e-11
3042 1 0.000635 -0.00427241 -0.01143 -0.019872 -4.29152e-07 6.30784e-05 -1.84946e-05 3.04538e-09 1.95206e-11
3128 1 0.000635 -0.00317256 -0.012065 -0.019872 -4.19531e-05 9.46732e-05 -2.13066e-05 3.79243e-09 7.59051e-11
3215 1 0.000635 -0.0020727 -0.01143 -0.019872 3.18103e-08 -6.98873e-08 -3.28173e-06 1.02608e-10 5.17148e-36
3301 1 0.000635 -0.000972852 -0.012065 -0.019872 2.93944e-08 -3.99051e-05 -2.48287e-06 1.10862e-10 7.19816e-12
3388 1 0.000635 0.000127 -0.01143 -0.019872 1.12834e-08 1.69407e-21 -1.24925e-06 2.95877e-11 5.17148e-36
3474 1 0.000635 0.00122685 -0.012065 -0.019872 -1.38294e-08 -4.91753e-06 -5.74841e-06 4.54123e-10 9.18972e-14
3561 1 0.000635 0.0023267 -0.01143 -0.019872 3.17246e-07 -1.65994e-07 -7.33827e-06 5.78777e-10 5.17148e-36
3647 1 0.000635 0.00342656 -0.012065 -0.019872 6.32026e-05 5.22479e-05 -2.68351e-06 5.156e-10 6.06505e-11
3734 1 0.000635 0.00452641 -0.01143 -0.019872 2.4093e-05 2.41452e-05 2.23849e-06 3.49885e-10 1.01731e-11
3820 1 0.000635 0.00561371 -0.0120415 -0.0196312 1.94362e-10 -5.07586e-10 -1.14222e-09 3.30472e-10 9.47937e-12
3906 1 0.000635 0.0067172 -0.0114137 -0.0196707 -4.23318e-10 7.02792e-10 3.50845e-09 2.73141e-10 3.53894e-12
2785 1 0.000635 -0.00756313 -0.0107835 -0.0196967 -1.2672e-10 4.22945e-11 3.02085e-11 2.80298e-09 8.3897e-11
2956 1 0.000635 -0.00537226 -0.010795 -0.019872 3.0491e-05 3.78489e-05 -1.62481e-05 2.52891e-09 8.81867e-12
3129 1 0.000635 -0.00317256 -0.010795 -0.019872 -2.20271e-09 -5.76469e-08 -3.16616e-06 9.5339e-11 6.46435e-36
3302 1 0.000635 -0.000972852 -0.010795 -0.019872 4.16215e-09 0 -2.44292e-07 1.12845e-12 5.17148e-36
3475 1 0.000635 0.00122685 -0.010795 -0.019872 9.77804e-09 0 -5.29825e-07 5.31005e-12 5.17148e-36
3648 1 0.000635 0.00342656 -0.010795 -0.019872 1.92762e-07 -1.07332e-07 -5.49076e-06 3.06947e-10 1.0343e-35
3821 1 0.000635 0.00562626 -0.010795 -0.019872 1.18843e-05 1.32781e-05 2.94178e-06 2.54968e-10 2.71005e-12
3992 1 0.000635 0.00782004 -0.0107841 -0.0197047 -2.26292e-10 1.42567e-10 7.69187e-10 1.40041e-09 6.24982e-11
2615 1 0.000635 -0.00975899 -0.00951156 -0.0196748 -3.41543e-10 1.60108e-10 -2.20111e-10 2.76439e-09 2.50983e-10
2700 1 0.000635 -0.00866166 -0.0101482 -0.0196908 -2.51897e-10 1.12775e-10 -1.35193e-10 2.68434e-09 1.32215e-10
2786 1 0.000635 -0.00757197 -0.009525 -0.019872 7.74411e-05 3.6866e-06 -1.32401e-05 1.70914e-09 4.5457e-11
2871 1 0.000635 -0.00647211 -0.01016 -0.019872 5.50182e-05 1.85065e-05 -1.4445e-05 2.10511e-09 2.04716e-11
2957 1 0.000635 -0.00537226 -0.009525 -0.019872 -3.69419e-08 -4.20686e-08 -3.10284e-06 9.15284e-11 3.74932e-35
3043 1 0.000635 -0.00427241 -0.01016 -0.019872 -2.22851e-08 -4.84086e-08 -3.11919e-06 9.25027e-11 2.71503e-35
3130 1 0.000635 -0.00317256 -0.009525 -0.019872 2.0671e-17 0 2.16e-11 1.05285e-24 6.46435e-36
3216 1 0.000635 -0.0020727 -0.01016 -0.019872 -6.77626e-21 0 2.16e-11 0 5.17148e-36
3303 1 0.000635 -0.000972852 -0.009525 -0.019872 0 0 2.16e-11 0 5.17148e-36
3389 1 0.000635 0.000127 -0.01016 -0.019872 0 0 2.16e-11 0 5.17148e-36
3476 1 0.000635 0.00122685 -0.009525 -0.019872 0 0 2.16e-11 0 5.17148e-36
3562 1 0.000635 0.0023267 -0.01016 -0.019872 0 0 2.16e-11 0 5.17148e-36
3649 1 0.000635 0.00342656 -0.009525 -0.019872 4.13115e-17 0 2.16e-11 0 1.0343e-35
3735 1 0.000635 0.00452641 -0.01016 -0.019872 1.18762e-07 -7.35163e-08 -4.38143e-06 1.90718e-10 3.10289e-35
3822 1 0.000635 0.00562626 -0.009525 -0.019872 8.22742e-08 -4.92457e-08 -3.59935e-06 1.27659e-10 3.74932e-35
3907 1 0.000635 0.00672611 -0.01016 -0.019872 2.44239e-05 -4.9444e-06 5.69664e-06 1.98317e-10 4.01515e-12
3993 1 0.000635 0.00782597 -0.009525 -0.019872 2.29649e-05 -2.48544e-05 4.4024e-06 5.16813e-10 3.7724e-12
4078 1 0.000635 0.00892153 -0.0101492 -0.0197163 -8.26374e-10 7.7031e-10 5.18157e-09 2.72595e-09 1.60511e-10
4164 1 0.000635 0.00999869 -0.00948926 -0.0195615 -1.19501e-10 -2.6156e-10 2.39133e-10 2.45573e-09 3.10925e-10
2446 1 0.000635 -0.0119559 -0.00824545 -0.01961 8.3035e-10 2.11535e-09 6.32265e-09 4.26972e-09 3.85701e-11
2530 1 0.000635 -0.0108562 -0.00887708 -0.0196484 -5.51462e-10 3.16379e-10 -1.77812e-10 3.20146e-09 1.13043e-10
2616 1 0.000635 -0.00977167 -0.008255 -0.019872 -2.61276e-05 -0.00010051 1.8622e-05 9.1967e-10 5.7913e-11
2701 1 0.000635 -0.00867182 -0.00889 -0.019872 0.000105664 -8.02284e-06 -1.37393e-05 1.31087e-09 9.12745e-11
2787 1 0.000635 -0.00757197 -0.008255 -0.019872 -5.44824e-08 -4.05494e-08 -3.28724e-06 1.03197e-10 4.0079e-35
2872 1 0.000635 -0.00647211 -0.00889 -0.019872 -4.70631e-08 -3.91902e-08 -3.1403e-06 9.38096e-11 3.74932e-35
2958 1 0.000635 -0.00537226 -0.008255 -0.019872 1.44607e-16 -7.15799e-17 2.16e-11 5.26426e-25 4.0079e-35
3044 1 0.000635 -0.00427241 -0.00889 -0.019872 -1.03289e-16 -4.76841e-17 2.16e-11 1.05285e-24 2.71503e-35
3131 1 0.000635 -0.00317256 -0.008255 -0.019872 3.09912e-17 -7.75431e-17 2.16e-11 5.26426e-25 1.87466e-35
3217 1 0.000635 -0.0020727 -0.00889 -0.019872 -3.38813e-21 -4.76866e-17 2.16e-11 0 5.17148e-36
3304 1 0.000635 -0.000972852 -0.008255 -0.019872 0 -7.15833e-17 2.16e-11 0 1.0343e-35
3390 1 0.000635 0.000127 -0.00889 -0.019872 0 -4.76866e-17 2.16e-11 0 5.17148e-36
3477 1 0.000635 0.00122685 -0.008255 -0.019872 0 -7.15833e-17 2.16e-11 0 1.0343e-35
3563 1 0.000635 0.0023267 -0.00889 -0.019872 0 -4.76858e-17 2.16e-11 0 5.17148e-36
3650 1 0.000635 0.00342656 -0.008255 -0.019872 4.13098e-17 -7.15825e-17 2.16e-11 0 1.0343e-35
3736 1 0.000635 0.00452641 -0.00889 -0.019872 4.13115e-17 -4.76841e-17 2.16e-11 0 3.10289e-35
3823 1 0.000635 0.00562626 -0.008255 -0.019872 -1.446e-16 -7.15791e-17 2.16e-11 0 4.0079e-35
3908 1 0.000635 0.00672611 -0.00889 -0.019872 4.67617e-08 -5.51294e-08 -3.14887e-06 9.59338e-11 1.68073e-35
3994 1 0.000635 0.00782597 -0.008255 -0.019872 -2.48939e-08 -1.33608e-07 -4.21895e-06 1.86286e-10 1.0343e-35
4079 1 0.000635 0.00892582 -0.00889 -0.019872 -0.000114918 0.0001304 -4.34831e-05 1.33171e-09 1.05884e-10
4165 1 0.000635 0.0100257 -0.008255 -0.019872 0.000471667 9.63367e-05 0.000143707 1.91015e-09 1.40974e-09
2362 1 0.000635 -0.0130528 -0.00761035 -0.0195326 -1.43749e-09 1.50446e-10 -4.70324e-09 3.5343e-09 1.26588e-10
2447 1 0.000635 -0.0119676 -0.00698399 -0.0197535 4.17136e-10 7.10081e-10 3.17087e-09 5.06138e-10 1.2721e-10
2531 1 0.000635 -0.0108709 -0.00761971 -0.0198251 1.23175e-11 1.40038e-10 -1.60852e-09 6.22413e-10 2.04665e-11
2617 1 0.000635 -0.00977167 -0.006985 -0.019872 -7.21929e-06 -4.11182e-06 -2.51989e-06 1.0619e-10 3.04085e-13
2702 1 0.000635 -0.00867182 -0.00762 -0.019872 -7.39225e-08 -2.69899e-08 -3.56811e-06 1.22624e-10 2.9736e-35
2788 1 0.000635 -0.00757197 -0.006985 -0.019872 1.44605e-16 -2.38958e-17 2.16e-11 0 4.0079e-35
2873 1 0.000635 -0.00647211 -0.00762 -0.019872 -1.44609e-16 2.38967e-17 2.16e-11 0 4.0079e-35
2959 1 0.000635 -0.00537226 -0.006985 -0.019872 1.44605e-16 -2.38958e-17 2.16e-11 0 4.0079e-35
3045 1 0.000635 -0.00427241 -0.00762 -0.019872 -1.13623e-16 2.98573e-17 2.16e-11 0 2.90896e-35
3132 1 0.000635 -0.00317256 -0.006985 -0.019872 3.09912e-17 -2.98573e-17 2.16e-11 0 1.87466e-35
3218 1 0.000635 -0.0020727 -0.00762 -0.019872 -1.69407e-21 2.38958e-17 2.16e-11 0 1.0343e-35
3305 1 0.000635 -0.000972852 -0.006985 -0.019872 0 -2.38967e-17 2.16e-11 0 1.0343e-35
3391 1 0.000635 0.000127 -0.00762 -0.019872 0 2.38967e-17 2.16e-11 0 1.0343e-35
3478 1 0.000635 0.00122685 -0.006985 -0.019872 0 -2.38967e-17 2.16e-11 0 1.0343e-35
3564 1 0.000635 0.0023267 -0.00762 -0.019872 0 2.38967e-17 2.16e-11 0 1.0343e-35
3651 1 0.000635 0.00342656 -0.006985 -0.019872 4.13081e-17 -2.38967e-17 2.16e-11 0 1.0343e-35
3737 1 0.000635 0.00452641 -0.00762 -0.019872 4.13217e-17 2.38958e-17 2.16e-11 0 2.06859e-35
3824 1 0.000635 0.00562626 -0.006985 -0.019872 -1.44599e-16 -2.3895e-17 2.16e-11 0 4.0079e-35
3909 1 0.000635 0.00672611 -0.00762 -0.019872 6.19757e-17 2.38958e-17 2.16e-11 0 2.9736e-35
3995 1 0.000635 0.00782597 -0.006985 -0.019872 -6.77626e-21 -2.38967e-17 2.16e-11 0 1.0343e-35
4080 1 0.000635 0.00892582 -0.00762 -0.019872 -1.09292e-07 -2.54889e-07 -7.48644e-06 8.05921e-10 1.0343e-35
4166 1 0.000635 0.0100257 -0.006985 -0.019872 -0.000129627 7.38516e-05 -2.93939e-05 1.46508e-09 1.04767e-10
4251 1 0.000635 0.0111145 -0.00760755 -0.0196911 1.75931e-11 -2.15336e-10 -5.85725e-10 2.35577e-09 2.22369e-09
2363 1 0.000635 -0.0130412 -0.00634136 -0.0195409 1.16413e-09 4.85235e-10 3.49598e-09 6.09865e-10 1.33518e-10
2448 1 0.000635 -0.0119704 -0.00571576 -0.0198237 -5.02879e-10 1.26192e-10 -4.21022e-09 3.99169e-10 1.41131e-10
2532 1 0.000635 -0.0108715 -0.00635 -0.019872 -6.97367e-05 -8.78391e-05 9.03852e-06 1.64856e-10 4.81392e-11
2618 1 0.000635 -0.00977167 -0.005715 -0.019872 -4.45238e-09 7.71175e-09 -1.04388e-06 2.06398e-11 6.85221e-35
2703 1 0.000635 -0.00867182 -0.00635 -0.019872 -3.27986e-10 5.68089e-10 -4.13402e-07 3.23108e-12 2.9736e-35
2789 1 0.000635 -0.00757197 -0.005715 -0.019872 1.44602e-16 4.76832e-17 2.16e-11 0 3.74932e-35
2874 1 0.000635 -0.00647211 -0.00635 -0.019872 -1.44609e-16 7.15816e-17 2.16e-11 0 4.0079e-35
2960 1 0.000635 -0.00537226 -0.005715 -0.019872 1.44604e-16 4.76841e-17 2.16e-11 5.26426e-25 3.74932e-35
3046 1 0.000635 -0.00427241 -0.00635 -0.019872 -1.13621e-16 7.75431e-17 2.16e-11 0 2.90896e-35
3133 1 0.000635 -0.00317256 -0.005715 -0.019872 2.0671e-17 4.76858e-17 2.16e-11 5.26426e-25 6.46435e-36
3219 1 0.000635 -0.0020727 -0.00635 -0.019872 -5.0822e-21 7.15842e-17 2.16e-11 0 1.0343e-35
3306 1 0.000635 -0.000972852 -0.005715 -0.019872 0 4.76866e-17 2.16e-11 0 5.17148e-36
3392 1 0.000635 0.000127 -0.00635 -0.019872 0 7.1585e-17 2.16e-11 0 1.0343e-35
3479 1 0.000635 0.00122685 -0.005715 -0.019872 0 4.76866e-17 2.16e-11 0 5.17148e-36
3565 1 0.000635 0.0023267 -0.00635 -0.019872 0 7.15842e-17 2.16e-11 0 1.0343e-35
3652 1 0.000635 0.00342656 -0.005715 -0.019872 4.13098e-17 4.76858e-17 2.16e-11 0 1.0343e-35
3738 1 0.000635 0.00452641 -0.00635 -0.019872 4.13183e-17 7.15816e-17 2.16e-11 0 2.06859e-35
3825 1 0.000635 0.00562626 -0.005715 -0.019872 -1.44597e-16 4.76841e-17 2.16e-11 0 3.74932e-35
3910 1 0.000635 0.00672611 -0.00635 -0.019872 6.19774e-17 7.15825e-17 2.16e-11 0 2.9736e-35
3996 1 0.000635 0.00782597 -0.005715 -0.019872 -6.77626e-21 4.76849e-17 2.16e-11 0 5.17148e-36
4081 1 0.000635 0.00892582 -0.00635 -0.019872 -2.33288e-08 -4.04067e-08 -1.59919e-06 4.86209e-11 1.0343e-35
4167 1 0.000635 0.0100257 -0.005715 -0.019872 -7.31802e-08 -1.26752e-07 -4.52501e-06 4.04615e-10 6.85221e-35
4252 1 0.000635 0.0111255 -0.00635 -0.019872 -0.00045922 -2.97608e-05 -0.000128256 2.13432e-09 7.09199e-10
4337 1 0.000635 0.0122196 -0.00571853 -0.0198007 -3.15986e-11 -1.69779e-10 -2.35446e-10 3.12969e-09 1.62487e-09
2364 1 0.000635 -0.0130218 -0.00507317 -0.0195237 4.01556e-10 2.5629e-10 5.2989e-10 4.93937e-10 3.11361e-10
2533 1 0.000635 -0.0108715 -0.00508 -0.019872 -2.23792e-05 -1.30974e-05 -3.97603e-06 3.03399e-10 2.98025e-12
2704 1 0.000635 -0.00867182 -0.00508 -0.019872 -6.19774e-17 -2.3845e-17 2.16e-11 0 1.42216e-35
2875 1 0.000635 -0.00647211 -0.00508 -0.019872 -1.44605e-16 -2.38442e-17 2.16e-11 0 3.49075e-35
3047 1 0.000635 -0.00427241 -0.00508 -0.019872 -1.03287e-16 -2.38433e-17 2.16e-11 1.57928e-24 2.45645e-35
3220 1 0.000635 -0.0020727 -0.00508 -0.019872 -3.38813e-21 -2.38442e-17 2.16e-11 0 2.58574e-36
3393 1 0.000635 0.000127 -0.00508 -0.019872 0 -2.38442e-17 2.16e-11 0 2.58574e-36
3566 1 0.000635 0.0023267 -0.00508 -0.019872 -3.38813e-21 -2.38459e-17 2.16e-11 0 2.58574e-36
3739 1 0.000635 0.00452641 -0.00508 -0.019872 4.13081e-17 -2.38433e-17 2.16e-11 5.26426e-25 2.84431e-35
3911 1 0.000635 0.00672611 -0.00508 -0.019872 6.19859e-17 -2.38442e-17 2.16e-11 0 1.42216e-35
4082 1 0.000635 0.00892582 -0.00508 -0.019872 -8.47033e-21 -2.3845e-17 2.16e-11 0 2.58574e-36
4253 1 0.000635 0.0111255 -0.00508 -0.019872 -5.71065e-05 3.25978e-05 -1.43878e-05 1.47192e-09 2.01077e-11
4422 1 0.000635 0.0132866 -0.00507745 -0.019569 -4.78128e-11 -3.22779e-10 -2.93688e-10 3.99662e-09 4.22312e-10
2365 1 0.000635 -0.0130044 -0.00380672 -0.0194954 7.99377e-10 2.03953e-10 1.65905e-09 5.6112e-10 2.47959e-10
2449 1 0.000635 -0.0119714 -0.004445 -0.019872 -0.00017565 -0.000121465 7.47188e-05 4.75416e-10 1.52613e-10
2534 1 0.000635 -0.0108715 -0.00381 -0.019872 -2.34374e-07 -1.19265e-07 -6.37681e-06 3.95345e-10 4.65433e-35
2619 1 0.000635 -0.00977167 -0.004445 -0.019872 -5.00738e-09 8.67304e-09 -4.25998e-07 3.43293e-12 6.01185e-35
2705 1 0.000635 -0.00867182 -0.00381 -0.019872 -8.2623e-17 0 2.16e-11 1.05285e-24 2.06859e-35
2790 1 0.000635 -0.00757197 -0.004445 -0.019872 1.44602e-16 -5.96282e-17 2.16e-11 5.26426e-25 3.74932e-35
2876 1 0.000635 -0.00647211 -0.00381 -0.019872 -1.44605e-16 0 2.16e-11 0 3.23218e-35
2961 1 0.000635 -0.00537226 -0.004445 -0.019872 1.44604e-16 -5.9629e-17 2.16e-11 5.26426e-25 3.74932e-35
3048 1 0.000635 -0.00427241 -0.00381 -0.019872 -1.03291e-16 0 2.16e-11 0 1.68073e-35
3134 1 0.000635 -0.00317256 -0.004445 -0.019872 3.09963e-17 -5.36693e-17 2.16e-11 1.57928e-24 8.40366e-36
3221 1 0.000635 -0.0020727 -0.00381 -0.019872 -6.77626e-21 0 2.16e-11 2.10571e-24 0
3307 1 0.000635 -0.000972852 -0.004445 -0.019872 0 -4.77053e-17 2.16e-11 1.05285e-24 5.17148e-36
3394 1 0.000635 0.000127 -0.00381 -0.019872 0 0 2.16e-11 1.05285e-24 0
3480 1 0.000635 0.00122685 -0.004445 -0.019872 0 -4.77053e-17 2.16e-11 1.05285e-24 5.17148e-36
3567 1 0.000635 0.0023267 -0.00381 -0.019872 0 0 2.16e-11 2.10571e-24 0
3653 1 0.000635 0.00342656 -0.004445 -0.019872 3.09811e-17 -5.36701e-17 2.16e-11 1.05285e-24 8.40366e-36
3740 1 0.000635 0.00452641 -0.00381 -0.019872 4.13217e-17 7.70372e-34 2.16e-11 0 1.29287e-35
3826 1 0.000635 0.00562626 -0.004445 -0.019872 -1.44597e-16 -5.9629e-17 2.16e-11 5.26426e-25 3.74932e-35
3912 1 0.000635 0.00672611 -0.00381 -0.019872 8.26298e-17 0 2.16e-11 1.05285e-24 2.06859e-35
3997 1 0.000635 0.00782597 -0.004445 -0.019872 -3.38813e-21 -4.77061e-17 2.16e-11 1.05285e-24 5.17148e-36
4083 1 0.000635 0.00892582 -0.00381 -0.019872 -6.77626e-21 0 2.16e-11 1.05285e-24 0
4168 1 0.000635 0.0100257 -0.004445 -0.019872 2.61983e-08 4.53768e-08 -6.29638e-07 7.55026e-12 6.01185e-35
4254 1 0.000635 0.0111255 -0.00381 -0.019872 1.82209e-07 -5.50071e-08 -5.48901e-06 2.90672e-10 4.65433e-35
4338 1 0.000635 0.0122254 -0.004445 -0.019872 0.000185993 -0.000305726 6.79523e-05 3.28561e-09 5.34708e-10
4423 1 0.000635 0.0132835 -0.0038083 -0.0195669 1.7164e-09 -2.13825e-10 -4.83086e-09 2.4904e-09 1.38651e-10
2366 1 0.000635 -0.0130053 -0.00253836 -0.0194963 -9.6617e-11 1.86557e-10 -3.17915e-10 5.30017e-10 7.14033e-11
2450 1 0.000635 -0.0119714 -0.003175 -0.019872 4.17066e-05 7.86228e-05 -5.47211e-06 5.45829e-10 6.18498e-11
2535 1 0.000635 -0.0108715 -0.00254 -0.019872 -2.83425e-07 -2.35906e-08 -6.64684e-06 4.3026e-10 6.33506e-35
2620 1 0.000635 -0.00977167 -0.003175 -0.019872 -1.3427e-16 4.1748e-17 2.16e-11 5.26426e-25 5.81792e-35
2706 1 0.000635 -0.00867182 -0.00254 -0.019872 -7.2301e-17 -5.97417e-18 2.16e-11 0 1.61609e-35
2791 1 0.000635 -0.00757197 -0.003175 -0.019872 1.44602e-16 4.77053e-17 2.16e-11 5.26426e-25 3.55539e-35
2877 1 0.000635 -0.00647211 -0.00254 -0.019872 -1.44605e-16 -1.19365e-17 2.16e-11 0 3.23218e-35
2962 1 0.000635 -0.00537226 -0.003175 -0.019872 1.44604e-16 4.7707e-17 2.16e-11 0 3.55539e-35
3049 1 0.000635 -0.00427241 -0.00254 -0.019872 -1.03284e-16 -1.19373e-17 2.16e-11 5.26426e-25 1.93931e-35
3135 1 0.000635 -0.00317256 -0.003175 -0.019872 3.09963e-17 4.17472e-17 2.16e-11 1.05285e-24 6.46435e-36
3222 1 0.000635 -0.0020727 -0.00254 -0.019872 0 -1.43996e-20 2.16e-11 0 0
3308 1 0.000635 -0.000972852 -0.003175 -0.019872 0 3.57823e-17 2.16e-11 1.05285e-24 3.23218e-36
3395 1 0.000635 0.000127 -0.00254 -0.019872 0 -1.35525e-20 2.16e-11 0 0
3481 1 0.000635 0.00122685 -0.003175 -0.019872 0 3.57823e-17 2.16e-11 1.05285e-24 3.23218e-36
3568 1 0.000635 0.0023267 -0.00254 -0.019872 -6.77626e-21 -1.35525e-20 2.16e-11 0 0
3654 1 0.000635 0.00342656 -0.003175 -0.019872 3.09777e-17 4.17463e-17 2.16e-11 1.05285e-24 6.46435e-36
3741 1 0.000635 0.00452641 -0.00254 -0.019872 4.13115e-17 -1.19382e-17 2.16e-11 5.26426e-25 1.93931e-35
3827 1 0.000635 0.00562626 -0.003175 -0.019872 -1.44595e-16 4.77053e-17 2.16e-11 5.26426e-25 3.55539e-35
3913 1 0.000635 0.00672611 -0.00254 -0.019872 7.23095e-17 -5.97502e-18 2.16e-11 0 1.61609e-35
3998 1 0.000635 0.00782597 -0.003175 -0.019872 0 3.57823e-17 2.16e-11 1.05285e-24 3.23218e-36
4084 1 0.000635 0.00892582 -0.00254 -0.019872 -8.47033e-21 -1.27055e-20 2.16e-11 0 0
4169 1 0.000635 0.0100257 -0.003175 -0.019872 1.3427e-16 4.1748e-17 2.16e-11 5.26426e-25 5.81792e-35
4255 1 0.000635 0.0111255 -0.00254 -0.019872 1.89334e-07 -3.16587e-08 -5.48693e-06 2.90402e-10 6.33506e-35
4339 1 0.000635 0.0122254 -0.003175 -0.019872 4.30757e-05 8.04359e-06 2.07379e-05 3.68834e-10 6.90014e-12
4424 1 0.000635 0.0132779 -0.00253927 -0.019552 -5.76139e-10 -2.53642e-10 1.6481e-09 4.04654e-10 2.0691e-11
2367 1 0.000635 -0.013005 -0.00126935 -0.0194953 1.0333e-09 1.26631e-10 2.29264e-09 5.11937e-10 2.43904e-11
2451 1 0.000635 -0.0119714 -0.001905 -0.019872 7.80767e-06 3.2668e-05 7.94984e-06 5.06764e-10 9.83239e-12
2536 1 0.000635 -0.0108715 -0.00127 -0.019872 -2.85142e-07 -1.14858e-08 -6.63403e-06 4.28609e-10 6.33506e-35
2621 1 0.000635 -0.00977167 -0.001905 -0.019872 -1.44592e-16 -1.19229e-17 2.16e-11 5.26426e-25 6.39971e-35
2707 1 0.000635 -0.00867182 -0.00127 -0.019872 -7.2301e-17 5.96909e-18 2.16e-11 5.26426e-25 1.61609e-35
2792 1 0.000635 -0.00757197 -0.001905 -0.019872 1.44605e-16 -1.19229e-17 2.16e-11 0 3.29682e-35
2878 1 0.000635 -0.00647211 -0.00127 -0.019872 -1.44605e-16 1.19331e-17 2.16e-11 0 3.23218e-35
2963 1 0.000635 -0.00537226 -0.001905 -0.019872 1.44602e-16 -1.19246e-17 2.16e-11 0 3.29682e-35
3050 1 0.000635 -0.00427241 -0.00127 -0.019872 -1.13613e-16 5.96993e-18 2.16e-11 0 2.13324e-35
3136 1 0.000635 -0.00317256 -0.001905 -0.019872 4.13081e-17 -1.19229e-17 2.16e-11 0 5.81792e-36
3223 1 0.000635 -0.0020727 -0.00127 -0.019872 0 7.6233e-21 2.16e-11 0 0
3309 1 0.000635 -0.000972852 -0.001905 -0.019872 0 -1.19229e-17 2.16e-11 0 6.46435e-37
3396 1 0.000635 0.000127 -0.00127 -0.019872 0 6.77626e-21 2.16e-11 0 0
3482 1 0.000635 0.00122685 -0.001905 -0.019872 0 -1.19229e-17 2.16e-11 0 6.46435e-37
3569 1 0.000635 0.0023267 -0.00127 -0.019872 -6.77626e-21 6.77626e-21 2.16e-11 0 0
3655 1 0.000635 0.00342656 -0.001905 -0.019872 2.06608e-17 -1.19229e-17 2.16e-11 0 1.93931e-36
3742 1 0.000635 0.00452641 -0.00127 -0.019872 4.13149e-17 1.19331e-17 2.16e-11 5.26426e-25 1.93931e-35
3828 1 0.000635 0.00562626 -0.001905 -0.019872 -1.44599e-16 -1.19229e-17 2.16e-11 0 3.29682e-35
3914 1 0.000635 0.00672611 -0.00127 -0.019872 7.23078e-17 5.96909e-18 2.16e-11 5.26426e-25 1.61609e-35
3999 1 0.000635 0.00782597 -0.001905 -0.019872 -6.77626e-21 -1.19229e-17 2.16e-11 5.26426e-25 6.46435e-37
4085 1 0.000635 0.00892582 -0.00127 -0.019872 -6.77626e-21 6.77626e-21 2.16e-11 0 0
4170 1 0.000635 0.0100257 -0.001905 -0.019872 1.44599e-16 -1.19229e-17 2.16e-11 0 6.39971e-35
4256 1 0.000635 0.0111255 -0.00127 -0.019872 2.0323e-07 -5.13304e-10 -5.60573e-06 3.03353e-10 6.33506e-35
4340 1 0.000635 0.0122254 -0.001905 -0.019872 4.54496e-06 9.07642e-06 1.03406e-05 3.63839e-10 8.49579e-13
4425 1 0.000635 0.0132786 -0.00126973 -0.0195548 1.86227e-10 -2.33224e-10 -3.41487e-10 3.96163e-10 4.91524e-12
2452 1 0.000635 -0.0119714 -0.000635 -0.019872 -1.51761e-06 8.73955e-06 1.1546e-05 4.96161e-10 7.21182e-13
2622 1 0.000635 -0.00977167 -0.000635 -0.019872 -1.44599e-16 -8.47033e-21 2.16e-11 0 6.33506e-35
2793 1 0.000635 -0.00757197 -0.000635 -0.019872 1.44604e-16 -1.19339e-17 2.16e-11 5.26426e-25 3.23218e-35
2964 1 0.000635 -0.00537226 -0.000635 -0.019872 1.44604e-16 -1.19365e-17 2.16e-11 0 3.23218e-35
3137 1 0.000635 -0.00317256 -0.000635 -0.019872 4.13183e-17 -8.47033e-21 2.16e-11 0 5.17148e-36
3310 1 0.000635 -0.000972852 -0.000635 -0.019872 0 -8.47033e-21 2.16e-11 0 0
3483 1 0.000635 0.00122685 -0.000635 -0.019872 0 -8.47033e-21 2.16e-11 0 0
3656 1 0.000635 0.00342656 -0.000635 -0.019872 3.09811e-17 -5.97078e-18 2.16e-11 5.26426e-25 3.23218e-36
3829 1 0.000635 0.00562626 -0.000635 -0.019872 -1.44597e-16 -1.19339e-17 2.16e-11 5.26426e-25 3.23218e-35
4000 1 0.000635 0.00782597 -0.000635 -0.019872 0 -8.47033e-21 2.16e-11 0 0
4171 1 0.000635 0.0100257 -0.000635 -0.019872 1.44599e-16 -8.47033e-21 2.16e-11 0 6.33506e-35
4341 1 0.000635 0.0122254 -0.000635 -0.019872 4.43127e-07 3.18128e-06 8.64404e-06 3.76642e-10 9.7121e-14
4426 1 0.000635 0.0132791 1.96223e-10 -0.0195564 1.70987e-09 -2.19104e-10 -4.49962e-09 3.99902e-10 2.28236e-12
2368 1 0.000635 -0.0130051 5.62571e-09 -0.0194956 -6.11246e-10 8.51518e-11 -1.4959e-09 5.09078e-10 1.33333e-11
2453 1 0.000635 -0.0119714 0.000635 -0.019872 -1.46034e-06 -8.46677e-06 1.15197e-05 4.95904e-10 6.77348e-13
2537 1 0.000635 -0.0108715 0 -0.019872 -2.87116e-07 3.2223e-10 -6.642e-06 4.29699e-10 6.33506e-35
2623 1 0.000635 -0.00977167 0.000635 -0.019872 -1.44599e-16 -3.38813e-21 2.16e-11 0 6.33506e-35
2708 1 0.000635 -0.00867182 0 -0.019872 -8.26247e-17 5.92923e-21 2.16e-11 0 2.06859e-35
2794 1 0.000635 -0.00757197 0.000635 -0.019872 1.44602e-16 -3.38813e-21 2.16e-11 0 3.23218e-35
2879 1 0.000635 -0.00647211 0 -0.019872 -1.44605e-16 5.0822e-21 2.16e-11 0 3.23218e-35
2965 1 0.000635 -0.00537226 0.000635 -0.019872 1.44602e-16 -3.38813e-21 2.16e-11 0 3.23218e-35
3051 1 0.000635 -0.00427241 0 -0.019872 -1.03282e-16 5.92923e-21 2.16e-11 0 1.68073e-35
3138 1 0.000635 -0.00317256 0.000635 -0.019872 4.13149e-17 -3.38813e-21 2.16e-11 0 5.17148e-36
3224 1 0.000635 -0.0020727 0 -0.019872 0 6.77626e-21 2.16e-11 0 0
3311 1 0.000635 -0.000972852 0.000635 -0.019872 0 -3.38813e-21 2.16e-11 0 0
3397 1 0.000635 0.000127 0 -0.019872 0 6.77626e-21 2.16e-11 0 0
3484 1 0.000635 0.00122685 0.000635 -0.019872 0 -3.38813e-21 2.16e-11 0 0
3570 1 0.000635 0.0023267 0 -0.019872 -3.38813e-21 5.0822e-21 2.16e-11 5.26426e-25 0
3657 1 0.000635 0.00342656 0.000635 -0.019872 2.06574e-17 -3.38813e-21 2.16e-11 0 1.29287e-36
3743 1 0.000635 0.00452641 0 -0.019872 4.13132e-17 5.92923e-21 2.16e-11 0 1.29287e-35
3830 1 0.000635 0.00562626 0.000635 -0.019872 -1.44595e-16 -3.38813e-21 2.16e-11 0 3.23218e-35
3915 1 0.000635 0.00672611 0 -0.019872 8.26315e-17 5.92923e-21 2.16e-11 0 2.06859e-35
4001 1 0.000635 0.00782597 0.000635 -0.019872 0 -3.38813e-21 2.16e-11 0 0
4086 1 0.000635 0.00892582 0 -0.019872 -6.77626e-21 6.77626e-21 2.16e-11 0 0
4172 1 0.000635 0.0100257 0.000635 -0.019872 1.44599e-16 -3.38813e-21 2.16e-11 0 6.33506e-35
4257 1 0.000635 0.0111255 0 -0.019872 2.0354e-07 -8.964e-12 -5.5951e-06 3.02179e-10 6.33506e-35
4342 1 0.000635 0.0122254 0.000635 -0.019872 4.38267e-07 -3.17348e-06 8.6424e-06 3.76663e-10 9.66296e-14
2369 1 0.000635 -0.0130051 0.00126936 -0.0194956 3.26775e-10 4.34166e-11 6.53451e-10 5.11476e-10 2.41713e-11
2454 1 0.000635 -0.0119714 0.001905 -0.019872 7.96053e-06 -3.23435e-05 7.88455e-06 5.05945e-10 9.64749e-12
2538 1 0.000635 -0.0108715 0.00127 -0.019872 -2.84668e-07 1.21598e-08 -6.62859e-06 4.27886e-10 6.33506e-35
2624 1 0.000635 -0.00977167 0.001905 -0.019872 -1.44595e-16 1.19221e-17 2.16e-11 0 6.39971e-35
2709 1 0.000635 -0.00867182 0.00127 -0.019872 -8.26264e-17 0 2.16e-11 0 2.06859e-35
2795 1 0.000635 -0.00757197 0.001905 -0.019872 1.44604e-16 1.19221e-17 2.16e-11 0 3.29682e-35
2880 1 0.000635 -0.00647211 0.00127 -0.019872 -1.44605e-16 0 2.16e-11 0 3.23218e-35
2966 1 0.000635 -0.00537226 0.001905 -0.019872 1.44604e-16 1.19238e-17 2.16e-11 0 3.29682e-35
3052 1 0.000635 -0.00427241 0.00127 -0.019872 -1.0328e-16 0 2.16e-11 0 1.68073e-35
3139 1 0.000635 -0.00317256 0.001905 -0.019872 4.13115e-17 1.19229e-17 2.16e-11 0 5.81792e-36
3225 1 0.000635 -0.0020727 0.00127 -0.019872 0 0 2.16e-11 0 0
3312 1 0.000635 -0.000972852 0.001905 -0.019872 0 1.19212e-17 2.16e-11 0 6.46435e-37
3398 1 0.000635 0.000127 0.00127 -0.019872 0 0 2.16e-11 0 0
3485 1 0.000635 0.00122685 0.001905 -0.019872 0 1.19212e-17 2.16e-11 0 6.46435e-37
3571 1 0.000635 0.0023267 0.00127 -0.019872 -6.77626e-21 0 2.16e-11 0 0
3658 1 0.000635 0.00342656 0.001905 -0.019872 2.06591e-17 1.19221e-17 2.16e-11 0 1.93931e-36
3744 1 0.000635 0.00452641 0.00127 -0.019872 4.13115e-17 0 2.16e-11 0 1.29287e-35
3831 1 0.000635 0.00562626 0.001905 -0.019872 -1.44597e-16 1.19221e-17 2.16e-11 0 3.29682e-35
3916 1 0.000635 0.00672611 0.00127 -0.019872 8.26331e-17 0 2.16e-11 0 2.06859e-35
4002 1 0.000635 0.00782597 0.001905 -0.019872 -3.38813e-21 1.19221e-17 2.16e-11 0 6.46435e-37
4087 1 0.000635 0.00892582 0.00127 -0.019872 -6.77626e-21 0 2.16e-11 0 0
4173 1 0.000635 0.0100257 0.001905 -0.019872 1.44599e-16 1.19212e-17 2.16e-11 0 6.39971e-35
4258 1 0.000635 0.0111255 0.00127 -0.019872 2.03227e-07 5.13782e-10 -5.6057e-06 3.0335e-10 6.33506e-35
4343 1 0.000635 0.0122254 0.001905 -0.019872 4.54579e-06 -9.07247e-06 1.03402e-05 3.6387e-10 8.4894e-13
4427 1 0.000635 0.0132786 0.00126973 -0.0195548 -1.97664e-10 -1.67745e-10 6.90592e-10 3.96192e-10 4.91724e-12
2370 1 0.000635 -0.0130055 0.00253837 -0.0194969 6.33947e-10 7.8232e-12 1.44031e-09 5.29049e-10 7.05708e-11
2455 1 0.000635 -0.0119714 0.003175 -0.019872 4.1519e-05 -7.79495e-05 -5.3767e-06 5.44704e-10 6.08333e-11
2539 1 0.000635 -0.0108715 0.00254 -0.019872 -2.82344e-07 2.45065e-08 -6.63453e-06 4.28618e-10 6.33506e-35
2625 1 0.000635 -0.00977167 0.003175 -0.019872 -1.3427e-16 -4.1748e-17 2.16e-11 5.26426e-25 5.81792e-35
2710 1 0.000635 -0.00867182 0.00254 -0.019872 -7.2301e-17 5.97417e-18 2.16e-11 0 1.61609e-35
2796 1 0.000635 -0.00757197 0.003175 -0.019872 1.44602e-16 -4.77053e-17 2.16e-11 5.26426e-25 3.55539e-35
2881 1 0.000635 -0.00647211 0.00254 -0.019872 -1.44605e-16 1.19365e-17 2.16e-11 0 3.23218e-35
2967 1 0.000635 -0.00537226 0.003175 -0.019872 1.44604e-16 -4.7707e-17 2.16e-11 0 3.55539e-35
3053 1 0.000635 -0.00427241 0.00254 -0.019872 -1.03284e-16 1.19373e-17 2.16e-11 5.26426e-25 1.93931e-35
3140 1 0.000635 -0.00317256 0.003175 -0.019872 3.09963e-17 -4.17472e-17 2.16e-11 1.05285e-24 6.46435e-36
3226 1 0.000635 -0.0020727 0.00254 -0.019872 0 1.43996e-20 2.16e-11 0 0
3313 1 0.000635 -0.000972852 0.003175 -0.019872 0 -3.57823e-17 2.16e-11 1.05285e-24 3.23218e-36
3399 1 0.000635 0.000127 0.00254 -0.019872 0 1.35525e-20 2.16e-11 0 0
3486 1 0.000635 0.00122685 0.003175 -0.019872 0 -3.57823e-17 2.16e-11 1.05285e-24 3.23218e-36
3572 1 0.000635 0.0023267 0.00254 -0.019872 -6.77626e-21 1.35525e-20 2.16e-11 0 0
3659 1 0.000635 0.00342656 0.003175 -0.019872 3.09777e-17 -4.17463e-17 2.16e-11 1.05285e-24 6.46435e-36
3745 1 0.000635 0.00452641 0.00254 -0.019872 4.13115e-17 1.19382e-17 2.16e-11 5.26426e-25 1.93931e-35
3832 1 0.000635 0.00562626 0.003175 -0.019872 -1.44595e-16 -4.77053e-17 2.16e-11 5.26426e-25 3.55539e-35
3917 1 0.000635 0.00672611 0.00254 -0.019872 7.23095e-17 5.97502e-18 2.16e-11 0 1.61609e-35
4003 1 0.000635 0.00782597 0.003175 -0.019872 0 -3.57823e-17 2.16e-11 1.05285e-24 3.23218e-36
4088 1 0.000635 0.00892582 0.00254 -0.019872 -8.47033e-21 1.27055e-20 2.16e-11 0 0
4174 1 0.000635 0.0100257 0.003175 -0.019872 1.3427e-16 -4.1748e-17 2.16e-11 5.26426e-25 5.81792e-35
4259 1 0.000635 0.0111255 0.00254 -0.019872 1.89338e-07 3.16661e-08 -5.48691e-06 2.904e-10 6.33506e-35
4344 1 0.000635 0.0122254 0.003175 -0.019872 4.30248e-05 -8.07395e-06 2.07189e-05 3.69008e-10 6.88952e-12
4428 1 0.000635 0.0132779 0.00253927 -0.019552 -1.68696e-09 -1.99671e-10 4.73082e-09 4.04772e-10 2.06771e-11
2371 1 0.000635 -0.0130048 0.00380674 -0.0194965 3.23792e-10 -3.25042e-11 9.05113e-10 5.59654e-10 2.44493e-10
2456 1 0.000635 -0.0119714 0.004445 -0.019872 -0.000174722 0.000121056 7.41211e-05 4.7393e-10 1.51106e-10
2540 1 0.000635 -0.0108715 0.00381 -0.019872 -2.33372e-07 1.19137e-07 -6.36231e-06 3.93524e-10 4.65433e-35
2626 1 0.000635 -0.00977167 0.004445 -0.019872 -4.99814e-09 -8.65704e-09 -4.24682e-07 3.41174e-12 6.01185e-35
2711 1 0.000635 -0.00867182 0.00381 -0.019872 -8.2623e-17 0 2.16e-11 1.05285e-24 2.06859e-35
2797 1 0.000635 -0.00757197 0.004445 -0.019872 1.44602e-16 5.96282e-17 2.16e-11 5.26426e-25 3.74932e-35
2882 1 0.000635 -0.00647211 0.00381 -0.019872 -1.44605e-16 0 2.16e-11 0 3.23218e-35
2968 1 0.000635 -0.00537226 0.004445 -0.019872 1.44604e-16 5.9629e-17 2.16e-11 5.26426e-25 3.74932e-35