ITEM: TIMESTEP
1680000
ITEM: NUMBER OF ATOMS
6793
ITEM: BOX BOUNDS ff ff ff
-8.9999999999999997e-02 8.9999999999999997e-02
-8.9999999999999997e-02 8.9999999999999997e-02
-4.0000000000000001e-02 4.0000000000000001e-02
ITEM: ATOMS id type radius x y z fx fy fz c_bendingE c_stretchingE
3385 1 0.000635 0.000117114 -0.0151811 -0.0176393 -2.74235e-10 3.74313e-09 4.13417e-09 3.22622e-09 7.24086e-11
3213 1 0.000635 -0.00207134 -0.0139526 -0.0179424 -6.6898e-10 3.35295e-10 2.6075e-09 5.29011e-09 3.81358e-10
3299 1 0.000635 -0.000974332 -0.0145859 -0.0178921 -5.5787e-10 8.47391e-10 1.36668e-09 4.90721e-09 1.18964e-10
3386 1 0.000635 0.000125816 -0.0139628 -0.0180023 -4.00969e-10 3.3015e-09 1.08804e-08 3.59974e-09 4.40985e-11
3472 1 0.000635 0.00120769 -0.0145332 -0.0176606 3.63125e-09 -2.73698e-09 -1.29686e-08 1.70645e-09 1.66037e-10
3559 1 0.000635 0.00228592 -0.0138643 -0.0176336 1.00125e-09 -4.99157e-10 -4.86026e-09 7.19336e-10 2.03983e-10
3732 1 0.000635 0.0044649 -0.0138277 -0.0173517 2.70281e-10 4.90836e-09 1.08901e-08 1.95685e-10 7.29193e-11
3041 1 0.000635 -0.00426584 -0.0126845 -0.0179542 7.67244e-10 4.46857e-10 3.82517e-09 3.36281e-09 1.48059e-10
3127 1 0.000635 -0.00316775 -0.0133179 -0.0179511 5.94331e-10 1.0921e-09 6.27916e-09 4.00119e-09 3.89777e-10
3214 1 0.000635 -0.0020727 -0.0127 -0.018144 -9.76652e-05 6.60857e-06 -3.72167e-06 4.55209e-09 8.1882e-11
3300 1 0.000635 -0.0009733 -0.0133353 -0.0181141 -4.69267e-10 7.538e-10 4.25946e-09 3.54293e-09 4.45226e-11
3387 1 0.000635 0.000127 -0.0127 -0.018144 -5.00226e-05 -5.78048e-05 2.31356e-06 3.81184e-10 1.74838e-11
3473 1 0.000635 0.00122579 -0.0133336 -0.0180831 9.98566e-10 -1.66293e-09 -1.15129e-08 4.7815e-10 1.5218e-10
3560 1 0.000635 0.0023267 -0.0127 -0.018144 8.31026e-05 -0.000231562 0.000118312 6.11694e-10 2.69291e-10
3646 1 0.000635 0.00340146 -0.0132812 -0.0177845 4.46705e-10 2.39348e-09 4.59398e-09 5.96358e-10 3.1849e-10
3733 1 0.000635 0.00451077 -0.012669 -0.0178685 -1.4589e-09 6.41197e-09 1.91867e-08 3.86555e-10 4.86292e-11
3819 1 0.000635 0.00558008 -0.0132344 -0.0174779 5.62166e-12 4.56504e-09 1.19212e-08 1.53139e-10 3.05712e-11
3905 1 0.000635 0.00669066 -0.0126264 -0.0175741 3.20274e-09 -4.56011e-09 -1.71656e-08 1.62908e-10 5.17232e-12
4076 1 0.000635 0.00886679 -0.0125753 -0.0172662 -1.52242e-09 6.86352e-09 6.73501e-09 3.35369e-09 9.73874e-12
2870 1 0.000635 -0.00646345 -0.0114167 -0.0179598 1.0731e-09 2.28106e-09 1.2547e-08 2.63286e-09 5.76589e-11
2955 1 0.000635 -0.00536446 -0.0120507 -0.017957 -1.10108e-09 5.26598e-10 2.05961e-09 2.92963e-09 6.61625e-11
3042 1 0.000635 -0.00427241 -0.01143 -0.018144 -1.24685e-06 6.49544e-05 -1.79779e-05 2.62305e-09 2.08865e-11
3128 1 0.000635 -0.00317256 -0.012065 -0.018144 -4.33643e-05 9.83395e-05 -2.11392e-05 3.29093e-09 8.16593e-11
3215 1 0.000635 -0.0020727 -0.01143 -0.018144 3.27141e-08 -7.75771e-08 -3.45308e-06 1.13613e-10 5.17148e-36
3301 1 0.000635 -0.000972852 -0.012065 -0.018144 3.64433e-08 -3.47735e-05 -2.58682e-06 1.1655e-10 5.45804e-12
3388 1 0.000635 0.000127 -0.01143 -0.018144 1.04332e-08 0 -1.24933e-06 2.95915e-11 5.17148e-36
3474 1 0.000635 0.00122685 -0.012065 -0.018144 -2.04453e-08 -2.88395e-06 -5.43672e-06 4.00586e-10 2.83932e-14
3561 1 0.000635 0.0023267 -0.01143 -0.018144 2.75218e-07 -1.45412e-07 -6.92199e-06 5.14381e-10 5.17148e-36
3647 1 0.000635 0.00342656 -0.012065 -0.018144 6.25097e-05 4.91722e-05 -1.88911e-06 4.57805e-10 5.7263e-11
3734 1 0.000635 0.00452641 -0.01143 -0.018144 2.51731e-05 2.20334e-05 2.56914e-06 3.08104e-10 9.97296e-12
3820 1 0.000635 0.00561558 -0.0120447 -0.0179202 -2.34646e-09 6.87192e-09 2.42971e-08 2.89911e-10 9.52891e-12
3906 1 0.000635 0.00671859 -0.0114161 -0.0179578 2.2969e-09 -5.31209e-09 -2.73036e-08 2.37809e-10 2.99009e-12
3991 1 0.000635 0.00779979 -0.0120143 -0.017664 3.36424e-11 1.31017e-09 -7.58778e-09 2.54938e-09 8.3627e-11
2614 1 0.000635 -0.00961685 -0.01055 -0.0172271 3.27489e-09 7.55329e-09 1.1913e-08 2.44103e-09 2.95547e-10
2785 1 0.000635 -0.00756253 -0.0107824 -0.0179611 1.05769e-09 1.65459e-09 1.12368e-08 2.42678e-09 8.30553e-11
2956 1 0.000635 -0.00537226 -0.010795 -0.018144 2.9929e-05 3.88621e-05 -1.5527e-05 2.17642e-09 8.78628e-12
3129 1 0.000635 -0.00317256 -0.010795 -0.018144 -5.02417e-09 -6.47978e-08 -3.35346e-06 1.07033e-10 6.46435e-36
3302 1 0.000635 -0.000972852 -0.010795 -0.018144 3.95111e-09 0 -2.63952e-07 1.3173e-12 5.17148e-36
3475 1 0.000635 0.00122685 -0.010795 -0.018144 9.3967e-09 0 -5.37361e-07 5.46208e-12 5.17148e-36
3648 1 0.000635 0.00342656 -0.010795 -0.018144 1.67721e-07 -9.33625e-08 -5.14711e-06 2.69726e-10 1.0343e-35
3821 1 0.000635 0.00562626 -0.010795 -0.018144 1.29694e-05 1.2576e-05 2.90803e-06 2.20133e-10 2.85649e-12
3992 1 0.000635 0.0078211 -0.010786 -0.0179913 3.39414e-09 -6.92554e-09 -4.70109e-08 1.24679e-09 5.92972e-11
4077 1 0.000635 0.00890382 -0.0113872 -0.0177124 -4.74845e-09 7.9749e-09 1.57333e-08 2.43948e-09 1.63864e-11
4163 1 0.000635 0.00990688 -0.0106746 -0.0173959 -1.32742e-09 5.20307e-09 2.90843e-09 2.78504e-09 1.56939e-11
2445 1 0.000635 -0.0118686 -0.00939807 -0.0173623 1.41823e-09 -2.92511e-09 -1.83651e-10 3.14186e-09 3.78254e-10
2529 1 0.000635 -0.010743 -0.00997391 -0.0172918 3.36854e-09 1.32549e-09 7.01397e-09 2.70556e-09 3.94752e-10
2615 1 0.000635 -0.00975899 -0.0095113 -0.0179456 -3.34473e-10 -2.20771e-09 -3.54505e-09 2.39262e-09 2.35616e-10
2700 1 0.000635 -0.00866129 -0.0101475 -0.017958 2.36359e-09 2.27104e-09 1.16276e-08 2.3229e-09 1.29289e-10
2786 1 0.000635 -0.00757197 -0.009525 -0.018144 7.65552e-05 3.89662e-06 -1.2278e-05 1.48786e-09 4.41735e-11
2871 1 0.000635 -0.00647211 -0.01016 -0.018144 5.45414e-05 1.90699e-05 -1.36009e-05 1.81888e-09 1.99273e-11
2957 1 0.000635 -0.00537226 -0.009525 -0.018144 -4.16608e-08 -4.70228e-08 -3.26425e-06 1.01381e-10 3.74932e-35
3043 1 0.000635 -0.00427241 -0.01016 -0.018144 -2.64261e-08 -5.46394e-08 -3.30108e-06 1.03696e-10 2.71503e-35
3130 1 0.000635 -0.00317256 -0.009525 -0.018144 2.0671e-17 0 2.16e-11 1.05285e-24 6.46435e-36
3216 1 0.000635 -0.0020727 -0.01016 -0.018144 -6.77626e-21 0 2.16e-11 0 5.17148e-36
3303 1 0.000635 -0.000972852 -0.009525 -0.018144 0 0 2.16e-11 0 5.17148e-36
3389 1 0.000635 0.000127 -0.01016 -0.018144 0 0 2.16e-11 0 5.17148e-36
3476 1 0.000635 0.00122685 -0.009525 -0.018144 0 0 2.16e-11 0 5.17148e-36
3562 1 0.000635 0.0023267 -0.01016 -0.018144 0 0 2.16e-11 0 5.17148e-36
3649 1 0.000635 0.00342656 -0.009525 -0.018144 4.13115e-17 0 2.16e-11 0 1.0343e-35
3735 1 0.000635 0.00452641 -0.01016 -0.018144 1.01494e-07 -6.32558e-08 -4.07304e-06 1.64744e-10 3.10289e-35
3822 1 0.000635 0.00562626 -0.009525 -0.018144 7.06021e-08 -4.09329e-08 -3.32003e-06 1.088e-10 3.74932e-35
3907 1 0.000635 0.00672611 -0.01016 -0.018144 2.41857e-05 -4.82799e-06 5.09161e-06 1.71348e-10 3.9395e-12
3993 1 0.000635 0.00782597 -0.009525 -0.018144 2.09189e-05 -2.41898e-05 3.57441e-06 4.61456e-10 3.28378e-12
4078 1 0.000635 0.0089224 -0.0101508 -0.018002 1.18153e-09 7.81598e-10 -5.95781e-09 2.43512e-09 1.41878e-10
4164 1 0.000635 0.0100021 -0.00949392 -0.0178542 4.35281e-09 -1.02391e-09 -1.19953e-08 2.19247e-09 2.48386e-10
2277 1 0.000635 -0.0141164 -0.00823239 -0.0174971 6.77289e-10 -3.56683e-09 -3.78152e-09 5.28362e-09 1.25122e-10
2361 1 0.000635 -0.0129937 -0.00881931 -0.0174333 1.20909e-09 -4.71357e-09 -4.04119e-09 6.59481e-09 1.8315e-10
2446 1 0.000635 -0.011957 -0.00824612 -0.017891 6.48802e-11 -3.51322e-09 -6.83406e-09 3.75378e-09 3.27139e-11
2530 1 0.000635 -0.0108568 -0.00887738 -0.017924 3.3159e-09 2.79886e-09 1.19653e-08 2.78126e-09 1.01766e-10
2616 1 0.000635 -0.00977167 -0.008255 -0.018144 -2.61538e-05 -9.72193e-05 1.86312e-05 8.19465e-10 5.39975e-11
2701 1 0.000635 -0.00867182 -0.00889 -0.018144 0.000103002 -8.17967e-06 -1.25038e-05 1.15276e-09 8.67464e-11
2787 1 0.000635 -0.00757197 -0.008255 -0.018144 -5.87915e-08 -4.22807e-08 -3.36461e-06 1.0795e-10 4.0079e-35
2872 1 0.000635 -0.00647211 -0.00889 -0.018144 -5.18165e-08 -4.26117e-08 -3.26684e-06 1.01544e-10 3.74932e-35
2958 1 0.000635 -0.00537226 -0.008255 -0.018144 1.44607e-16 -7.15799e-17 2.16e-11 5.26426e-25 4.0079e-35
3044 1 0.000635 -0.00427241 -0.00889 -0.018144 -1.03289e-16 -4.76841e-17 2.16e-11 1.05285e-24 2.71503e-35
3131 1 0.000635 -0.00317256 -0.008255 -0.018144 3.09912e-17 -7.75431e-17 2.16e-11 5.26426e-25 1.87466e-35
3217 1 0.000635 -0.0020727 -0.00889 -0.018144 -3.38813e-21 -4.76866e-17 2.16e-11 0 5.17148e-36
3304 1 0.000635 -0.000972852 -0.008255 -0.018144 0 -7.15833e-17 2.16e-11 0 1.0343e-35
3390 1 0.000635 0.000127 -0.00889 -0.018144 0 -4.76866e-17 2.16e-11 0 5.17148e-36
3477 1 0.000635 0.00122685 -0.008255 -0.018144 0 -7.15833e-17 2.16e-11 0 1.0343e-35
3563 1 0.000635 0.0023267 -0.00889 -0.018144 0 -4.76858e-17 2.16e-11 0 5.17148e-36
3650 1 0.000635 0.00342656 -0.008255 -0.018144 4.13098e-17 -7.15825e-17 2.16e-11 0 1.0343e-35
3736 1 0.000635 0.00452641 -0.00889 -0.018144 4.13115e-17 -4.76841e-17 2.16e-11 0 3.10289e-35
3823 1 0.000635 0.00562626 -0.008255 -0.018144 -1.446e-16 -7.15791e-17 2.16e-11 0 4.0079e-35
3908 1 0.000635 0.00672611 -0.00889 -0.018144 3.89608e-08 -4.75036e-08 -2.89369e-06 8.10738e-11 1.68073e-35
3994 1 0.000635 0.00782597 -0.008255 -0.018144 -2.40973e-08 -1.15979e-07 -3.90669e-06 1.60314e-10 1.0343e-35
4079 1 0.000635 0.00892582 -0.00889 -0.018144 -0.000104062 0.00012312 -3.74547e-05 1.19468e-09 8.90761e-11
4165 1 0.000635 0.0100257 -0.008255 -0.018144 0.000411635 8.63635e-05 0.000117727 1.70762e-09 1.07181e-09
4250 1 0.000635 0.0109817 -0.00877349 -0.0174873 -2.42068e-09 5.10397e-09 3.80608e-09 2.30861e-09 3.7463e-11
2278 1 0.000635 -0.0140773 -0.00696681 -0.0174287 2.36358e-09 -4.53635e-09 2.8607e-09 4.32872e-09 1.68132e-10
2362 1 0.000635 -0.0130545 -0.00761125 -0.0178189 1.34035e-09 -3.2516e-09 -6.70339e-10 3.08319e-09 1.16334e-10
2447 1 0.000635 -0.0119679 -0.0069841 -0.0180298 -2.90721e-09 -2.53542e-09 -2.01639e-08 4.62974e-10 1.14448e-10
2531 1 0.000635 -0.0108709 -0.00761972 -0.0180986 -5.40321e-10 -3.79169e-11 -4.13167e-09 5.61177e-10 1.90111e-11
2617 1 0.000635 -0.00977167 -0.006985 -0.018144 -7.42185e-06 -4.2278e-06 -2.49347e-06 1.03547e-10 3.21879e-13
2702 1 0.000635 -0.00867182 -0.00762 -0.018144 -7.70423e-08 -2.71706e-08 -3.57897e-06 1.22889e-10 2.9736e-35
2788 1 0.000635 -0.00757197 -0.006985 -0.018144 1.44605e-16 -2.38958e-17 2.16e-11 0 4.0079e-35
2873 1 0.000635 -0.00647211 -0.00762 -0.018144 -1.44609e-16 2.38967e-17 2.16e-11 0 4.0079e-35
2959 1 0.000635 -0.00537226 -0.006985 -0.018144 1.44605e-16 -2.38958e-17 2.16e-11 0 4.0079e-35
3045 1 0.000635 -0.00427241 -0.00762 -0.018144 -1.13623e-16 2.98573e-17 2.16e-11 0 2.90896e-35
3132 1 0.000635 -0.00317256 -0.006985 -0.018144 3.09912e-17 -2.98573e-17 2.16e-11 0 1.87466e-35
3218 1 0.000635 -0.0020727 -0.00762 -0.018144 -1.69407e-21 2.38958e-17 2.16e-11 0 1.0343e-35
3305 1 0.000635 -0.000972852 -0.006985 -0.018144 0 -2.38967e-17 2.16e-11 0 1.0343e-35
3391 1 0.000635 0.000127 -0.00762 -0.018144 0 2.38967e-17 2.16e-11 0 1.0343e-35
3478 1 0.000635 0.00122685 -0.006985 -0.018144 0 -2.38967e-17 2.16e-11 0 1.0343e-35
3564 1 0.000635 0.0023267 -0.00762 -0.018144 0 2.38967e-17 2.16e-11 0 1.0343e-35
3651 1 0.000635 0.00342656 -0.006985 -0.018144 4.13081e-17 -2.38967e-17 2.16e-11 0 1.0343e-35
3737 1 0.000635 0.00452641 -0.00762 -0.018144 4.13217e-17 2.38958e-17 2.16e-11 0 2.06859e-35
3824 1 0.000635 0.00562626 -0.006985 -0.018144 -1.44599e-16 -2.3895e-17 2.16e-11 0 4.0079e-35
3909 1 0.000635 0.00672611 -0.00762 -0.018144 6.19757e-17 2.38958e-17 2.16e-11 0 2.9736e-35
3995 1 0.000635 0.00782597 -0.006985 -0.018144 -6.77626e-21 -2.38967e-17 2.16e-11 0 1.0343e-35
4080 1 0.000635 0.00892582 -0.00762 -0.018144 -9.75545e-08 -2.21175e-07 -7.04287e-06 7.13836e-10 1.0343e-35
4166 1 0.000635 0.0100257 -0.006985 -0.018144 -0.000119078 6.79473e-05 -2.61642e-05 1.30589e-09 8.82538e-11
4251 1 0.000635 0.0111155 -0.00760901 -0.0179728 2.21289e-09 -1.02133e-10 -6.87726e-09 2.10386e-09 1.68586e-09
4336 1 0.000635 0.0121444 -0.00692193 -0.0176585 3.73214e-09 1.43585e-10 -6.83913e-09 2.56341e-09 1.44314e-09
2279 1 0.000635 -0.0140296 -0.00570168 -0.017347 -5.09187e-09 -2.17583e-09 -1.47584e-08 2.83448e-10 8.42602e-11
2363 1 0.000635 -0.0130439 -0.00634221 -0.0178267 -4.21598e-09 -2.73481e-09 -1.45435e-08 5.55689e-10 1.22844e-10
2448 1 0.000635 -0.0119705 -0.00571572 -0.0180969 5.69709e-10 -2.11533e-10 1.10828e-08 3.61387e-10 1.29008e-10
2532 1 0.000635 -0.0108715 -0.00635 -0.018144 -6.7417e-05 -8.33817e-05 8.34467e-06 1.52448e-10 4.42505e-11
2618 1 0.000635 -0.00977167 -0.005715 -0.018144 -4.16662e-09 7.21679e-09 -1.00543e-06 1.91442e-11 6.85221e-35
2703 1 0.000635 -0.00867182 -0.00635 -0.018144 -2.56268e-10 4.43869e-10 -4.00258e-07 3.02882e-12 2.9736e-35
2789 1 0.000635 -0.00757197 -0.005715 -0.018144 1.44602e-16 4.76832e-17 2.16e-11 0 3.74932e-35
2874 1 0.000635 -0.00647211 -0.00635 -0.018144 -1.44609e-16 7.15816e-17 2.16e-11 0 4.0079e-35
2960 1 0.000635 -0.00537226 -0.005715 -0.018144 1.44604e-16 4.76841e-17 2.16e-11 5.26426e-25 3.74932e-35
3046 1 0.000635 -0.00427241 -0.00635 -0.018144 -1.13621e-16 7.75431e-17 2.16e-11 0 2.90896e-35
3133 1 0.000635 -0.00317256 -0.005715 -0.018144 2.0671e-17 4.76858e-17 2.16e-11 5.26426e-25 6.46435e-36
3219 1 0.000635 -0.0020727 -0.00635 -0.018144 -5.0822e-21 7.15842e-17 2.16e-11 0 1.0343e-35
3306 1 0.000635 -0.000972852 -0.005715 -0.018144 0 4.76866e-17 2.16e-11 0 5.17148e-36
3392 1 0.000635 0.000127 -0.00635 -0.018144 0 7.1585e-17 2.16e-11 0 1.0343e-35
3479 1 0.000635 0.00122685 -0.005715 -0.018144 0 4.76866e-17 2.16e-11 0 5.17148e-36
3565 1 0.000635 0.0023267 -0.00635 -0.018144 0 7.15842e-17 2.16e-11 0 1.0343e-35
3652 1 0.000635 0.00342656 -0.005715 -0.018144 4.13098e-17 4.76858e-17 2.16e-11 0 1.0343e-35
3738 1 0.000635 0.00452641 -0.00635 -0.018144 4.13183e-17 7.15816e-17 2.16e-11 0 2.06859e-35
3825 1 0.000635 0.00562626 -0.005715 -0.018144 -1.44597e-16 4.76841e-17 2.16e-11 0 3.74932e-35
3910 1 0.000635 0.00672611 -0.00635 -0.018144 6.19774e-17 7.15825e-17 2.16e-11 0 2.9736e-35
3996 1 0.000635 0.00782597 -0.005715 -0.018144 -6.77626e-21 4.76849e-17 2.16e-11 0 5.17148e-36
4081 1 0.000635 0.00892582 -0.00635 -0.018144 -1.99843e-08 -3.46137e-08 -1.51249e-06 4.34615e-11 1.0343e-35
4167 1 0.000635 0.0100257 -0.005715 -0.018144 -6.26255e-08 -1.08471e-07 -4.29791e-06 3.63295e-10 6.85221e-35
4252 1 0.000635 0.0111255 -0.00635 -0.018144 -0.000410757 -3.74627e-05 -0.000105961 1.90236e-09 5.62698e-10
4337 1 0.000635 0.01222 -0.00571812 -0.0180742 1.79533e-09 1.91787e-10 -7.88483e-09 2.78423e-09 1.33238e-09
2364 1 0.000635 -0.0130258 -0.00507381 -0.0178094 -8.52815e-09 -6.74992e-10 -2.13989e-08 4.48763e-10 2.75447e-10
2533 1 0.000635 -0.0108715 -0.00508 -0.018144 -2.15273e-05 -1.25941e-05 -3.8337e-06 2.80379e-10 2.75966e-12
2704 1 0.000635 -0.00867182 -0.00508 -0.018144 -6.19774e-17 -2.3845e-17 2.16e-11 0 1.42216e-35
2875 1 0.000635 -0.00647211 -0.00508 -0.018144 -1.44605e-16 -2.38442e-17 2.16e-11 0 3.49075e-35
3047 1 0.000635 -0.00427241 -0.00508 -0.018144 -1.03287e-16 -2.38433e-17 2.16e-11 1.57928e-24 2.45645e-35
3220 1 0.000635 -0.0020727 -0.00508 -0.018144 -3.38813e-21 -2.38442e-17 2.16e-11 0 2.58574e-36
3393 1 0.000635 0.000127 -0.00508 -0.018144 0 -2.38442e-17 2.16e-11 0 2.58574e-36
3566 1 0.000635 0.0023267 -0.00508 -0.018144 -3.38813e-21 -2.38459e-17 2.16e-11 0 2.58574e-36
3739 1 0.000635 0.00452641 -0.00508 -0.018144 4.13081e-17 -2.38433e-17 2.16e-11 5.26426e-25 2.84431e-35
3911 1 0.000635 0.00672611 -0.00508 -0.018144 6.19859e-17 -2.38442e-17 2.16e-11 0 1.42216e-35
4082 1 0.000635 0.00892582 -0.00508 -0.018144 -8.47033e-21 -2.3845e-17 2.16e-11 0 2.58574e-36
4253 1 0.000635 0.0111255 -0.00508 -0.018144 -5.60793e-05 3.20517e-05 -1.36768e-05 1.31495e-09 1.93758e-11
4422 1 0.000635 0.0132898 -0.00507747 -0.0178533 4.05951e-09 7.32177e-10 -9.40169e-09 3.57084e-09 3.55296e-10
2365 1 0.000635 -0.0130091 -0.00380705 -0.0177803 6.59912e-09 -9.67973e-10 1.4761e-08 5.1404e-10 1.99888e-10
2449 1 0.000635 -0.0119714 -0.004445 -0.018144 -0.000168798 -0.000120347 6.92359e-05 4.38272e-10 1.41873e-10
2534 1 0.000635 -0.0108715 -0.00381 -0.018144 -2.16936e-07 -1.11242e-07 -6.13966e-06 3.65803e-10 4.65433e-35
2619 1 0.000635 -0.00977167 -0.004445 -0.018144 -4.75272e-09 8.23194e-09 -4.14819e-07 3.25497e-12 6.01185e-35
2705 1 0.000635 -0.00867182 -0.00381 -0.018144 -8.2623e-17 0 2.16e-11 1.05285e-24 2.06859e-35
2790 1 0.000635 -0.00757197 -0.004445 -0.018144 1.44602e-16 -5.96282e-17 2.16e-11 5.26426e-25 3.74932e-35
2876 1 0.000635 -0.00647211 -0.00381 -0.018144 -1.44605e-16 0 2.16e-11 0 3.23218e-35
2961 1 0.000635 -0.00537226 -0.004445 -0.018144 1.44604e-16 -5.9629e-17 2.16e-11 5.26426e-25 3.74932e-35
3048 1 0.000635 -0.00427241 -0.00381 -0.018144 -1.03291e-16 0 2.16e-11 0 1.68073e-35
3134 1 0.000635 -0.00317256 -0.004445 -0.018144 3.09963e-17 -5.36693e-17 2.16e-11 1.57928e-24 8.40366e-36
3221 1 0.000635 -0.0020727 -0.00381 -0.018144 -6.77626e-21 0 2.16e-11 2.10571e-24 0
3307 1 0.000635 -0.000972852 -0.004445 -0.018144 0 -4.77053e-17 2.16e-11 1.05285e-24 5.17148e-36
3394 1 0.000635 0.000127 -0.00381 -0.018144 0 0 2.16e-11 1.05285e-24 0
3480 1 0.000635 0.00122685 -0.004445 -0.018144 0 -4.77053e-17 2.16e-11 1.05285e-24 5.17148e-36
3567 1 0.000635 0.0023267 -0.00381 -0.018144 0 0 2.16e-11 2.10571e-24 0
3653 1 0.000635 0.00342656 -0.004445 -0.018144 3.09811e-17 -5.36701e-17 2.16e-11 1.05285e-24 8.40366e-36
3740 1 0.000635 0.00452641 -0.00381 -0.018144 4.13217e-17 7.70372e-34 2.16e-11 0 1.29287e-35
3826 1 0.000635 0.00562626 -0.004445 -0.018144 -1.44597e-16 -5.9629e-17 2.16e-11 5.26426e-25 3.74932e-35
3912 1 0.000635 0.00672611 -0.00381 -0.018144 8.26298e-17 0 2.16e-11 1.05285e-24 2.06859e-35
3997 1 0.000635 0.00782597 -0.004445 -0.018144 -3.38813e-21 -4.77061e-17 2.16e-11 1.05285e-24 5.17148e-36
4083 1 0.000635 0.00892582 -0.00381 -0.018144 -6.77626e-21 0 2.16e-11 1.05285e-24 0
4168 1 0.000635 0.0100257 -0.004445 -0.018144 2.3858e-08 4.13232e-08 -6.16419e-07 7.22963e-12 6.01185e-35
4254 1 0.000635 0.0111255 -0.00381 -0.018144 1.65327e-07 -4.91974e-08 -5.24627e-06 2.64988e-10 4.65433e-35
4338 1 0.000635 0.0122254 -0.004445 -0.018144 0.000177226 -0.000270946 6.10021e-05 2.94745e-09 4.52786e-10
4423 1 0.000635 0.0132883 -0.0038083 -0.0178558 -2.00706e-09 5.81968e-11 1.02543e-08 2.20731e-09 1.42905e-10
4507 1 0.000635 0.0143026 -0.00444168 -0.0174273 6.97017e-09 2.07433e-10 -7.9425e-09 3.50435e-09 2.07736e-11
2281 1 0.000635 -0.0139819 -0.003173 -0.0172661 6.88476e-09 -1.63509e-09 1.35844e-08 1.56084e-10 2.29983e-11
2366 1 0.000635 -0.01301 -0.00253852 -0.0177816 8.17197e-09 -7.63583e-10 1.95982e-08 4.88703e-10 5.8236e-11
2450 1 0.000635 -0.0119714 -0.003175 -0.018144 3.70071e-05 7.12659e-05 -3.51836e-06 5.00895e-10 5.0555e-11
2535 1 0.000635 -0.0108715 -0.00254 -0.018144 -2.6395e-07 -2.09828e-08 -6.41819e-06 4.00318e-10 6.33506e-35
2620 1 0.000635 -0.00977167 -0.003175 -0.018144 -1.3427e-16 4.1748e-17 2.16e-11 5.26426e-25 5.81792e-35
2706 1 0.000635 -0.00867182 -0.00254 -0.018144 -7.2301e-17 -5.97417e-18 2.16e-11 0 1.61609e-35
2791 1 0.000635 -0.00757197 -0.003175 -0.018144 1.44602e-16 4.77053e-17 2.16e-11 5.26426e-25 3.55539e-35
2877 1 0.000635 -0.00647211 -0.00254 -0.018144 -1.44605e-16 -1.19365e-17 2.16e-11 0 3.23218e-35
2962 1 0.000635 -0.00537226 -0.003175 -0.018144 1.44604e-16 4.7707e-17 2.16e-11 0 3.55539e-35
3049 1 0.000635 -0.00427241 -0.00254 -0.018144 -1.03284e-16 -1.19373e-17 2.16e-11 5.26426e-25 1.93931e-35
3135 1 0.000635 -0.00317256 -0.003175 -0.018144 3.09963e-17 4.17472e-17 2.16e-11 1.05285e-24 6.46435e-36
3222 1 0.000635 -0.0020727 -0.00254 -0.018144 0 -1.43996e-20 2.16e-11 0 0
3308 1 0.000635 -0.000972852 -0.003175 -0.018144 0 3.57823e-17 2.16e-11 1.05285e-24 3.23218e-36
3395 1 0.000635 0.000127 -0.00254 -0.018144 0 -1.35525e-20 2.16e-11 0 0
3481 1 0.000635 0.00122685 -0.003175 -0.018144 0 3.57823e-17 2.16e-11 1.05285e-24 3.23218e-36
3568 1 0.000635 0.0023267 -0.00254 -0.018144 -6.77626e-21 -1.35525e-20 2.16e-11 0 0
3654 1 0.000635 0.00342656 -0.003175 -0.018144 3.09777e-17 4.17463e-17 2.16e-11 1.05285e-24 6.46435e-36
3741 1 0.000635 0.00452641 -0.00254 -0.018144 4.13115e-17 -1.19382e-17 2.16e-11 5.26426e-25 1.93931e-35
3827 1 0.000635 0.00562626 -0.003175 -0.018144 -1.44595e-16 4.77053e-17 2.16e-11 5.26426e-25 3.55539e-35
3913 1 0.000635 0.00672611 -0.00254 -0.018144 7.23095e-17 -5.97502e-18 2.16e-11 0 1.61609e-35
3998 1 0.000635 0.00782597 -0.003175 -0.018144 0 3.57823e-17 2.16e-11 1.05285e-24 3.23218e-36
4084 1 0.000635 0.00892582 -0.00254 -0.018144 -8.47033e-21 -1.27055e-20 2.16e-11 0 0
4169 1 0.000635 0.0100257 -0.003175 -0.018144 1.3427e-16 4.1748e-17 2.16e-11 5.26426e-25 5.81792e-35
4255 1 0.000635 0.0111255 -0.00254 -0.018144 1.69201e-07 -3.33219e-08 -5.2072e-06 2.61054e-10 6.33506e-35
4339 1 0.000635 0.0122254 -0.003175 -0.018144 4.66448e-05 8.10724e-06 2.06278e-05 3.29968e-10 7.89693e-12
4424 1 0.000635 0.0132825 -0.00253927 -0.0178393 9.63609e-10 -7.76347e-11 -9.77527e-10 3.61234e-10 2.13871e-11
4508 1 0.000635 0.0143082 -0.00317271 -0.0174386 4.92191e-09 7.73502e-10 -6.99832e-09 2.45367e-09 1.34512e-10
2282 1 0.000635 -0.0139919 -0.00190405 -0.0172844 -3.37505e-09 -1.33384e-09 -5.49773e-09 8.01977e-11 2.28284e-11
2367 1 0.000635 -0.0130096 -0.00126942 -0.0177803 -3.70858e-09 -7.33285e-10 -7.87644e-09 4.74186e-10 2.06652e-11
2451 1 0.000635 -0.0119714 -0.001905 -0.018144 5.61098e-06 2.95517e-05 8.45446e-06 4.70028e-10 7.99086e-12
2536 1 0.000635 -0.0108715 -0.00127 -0.018144 -2.65536e-07 -1.16025e-08 -6.40837e-06 3.99106e-10 6.33506e-35
2621 1 0.000635 -0.00977167 -0.001905 -0.018144 -1.44592e-16 -1.19229e-17 2.16e-11 5.26426e-25 6.39971e-35
2707 1 0.000635 -0.00867182 -0.00127 -0.018144 -7.2301e-17 5.96909e-18 2.16e-11 5.26426e-25 1.61609e-35
2792 1 0.000635 -0.00757197 -0.001905 -0.018144 1.44605e-16 -1.19229e-17 2.16e-11 0 3.29682e-35
2878 1 0.000635 -0.00647211 -0.00127 -0.018144 -1.44605e-16 1.19331e-17 2.16e-11 0 3.23218e-35
2963 1 0.000635 -0.00537226 -0.001905 -0.018144 1.44602e-16 -1.19246e-17 2.16e-11 0 3.29682e-35
3050 1 0.000635 -0.00427241 -0.00127 -0.018144 -1.13613e-16 5.96993e-18 2.16e-11 0 2.13324e-35
3136 1 0.000635 -0.00317256 -0.001905 -0.018144 4.13081e-17 -1.19229e-17 2.16e-11 0 5.81792e-36
3223 1 0.000635 -0.0020727 -0.00127 -0.018144 0 7.6233e-21 2.16e-11 0 0
3309 1 0.000635 -0.000972852 -0.001905 -0.018144 0 -1.19229e-17 2.16e-11 0 6.46435e-37
3396 1 0.000635 0.000127 -0.00127 -0.018144 0 6.77626e-21 2.16e-11 0 0
3482 1 0.000635 0.00122685 -0.001905 -0.018144 0 -1.19229e-17 2.16e-11 0 6.46435e-37
3569 1 0.000635 0.0023267 -0.00127 -0.018144 -6.77626e-21 6.77626e-21 2.16e-11 0 0
3655 1 0.000635 0.00342656 -0.001905 -0.018144 2.06608e-17 -1.19229e-17 2.16e-11 0 1.93931e-36
3742 1 0.000635 0.00452641 -0.00127 -0.018144 4.13149e-17 1.19331e-17 2.16e-11 5.26426e-25 1.93931e-35
3828 1 0.000635 0.00562626 -0.001905 -0.018144 -1.44599e-16 -1.19229e-17 2.16e-11 0 3.29682e-35
3914 1 0.000635 0.00672611 -0.00127 -0.018144 7.23078e-17 5.96909e-18 2.16e-11 5.26426e-25 1.61609e-35
3999 1 0.000635 0.00782597 -0.001905 -0.018144 -6.77626e-21 -1.19229e-17 2.16e-11 5.26426e-25 6.46435e-37
4085 1 0.000635 0.00892582 -0.00127 -0.018144 -6.77626e-21 6.77626e-21 2.16e-11 0 0
4170 1 0.000635 0.0100257 -0.001905 -0.018144 1.44599e-16 -1.19229e-17 2.16e-11 0 6.39971e-35
4256 1 0.000635 0.0111255 -0.00127 -0.018144 1.83608e-07 -1.57911e-09 -5.34013e-06 2.74719e-10 6.33506e-35
4340 1 0.000635 0.0122254 -0.001905 -0.018144 6.79947e-06 8.30825e-06 1.06008e-05 3.24849e-10 8.21341e-13
4425 1 0.000635 0.013283 -0.00126973 -0.0178416 1.11371e-10 -1.18471e-11 -8.72033e-10 3.52214e-10 4.99267e-12
4509 1 0.000635 0.0142937 -0.00190394 -0.0174063 1.35315e-09 6.1436e-10 -2.21475e-09 1.08145e-10 1.64311e-11
2283 1 0.000635 -0.0139917 -0.000634781 -0.0172842 -4.69409e-09 -1.43818e-09 -7.62135e-09 7.66544e-11 1.54455e-11
2452 1 0.000635 -0.0119714 -0.000635 -0.018144 -2.9979e-06 7.52412e-06 1.16872e-05 4.61114e-10 5.7529e-13
2622 1 0.000635 -0.00977167 -0.000635 -0.018144 -1.44599e-16 -8.47033e-21 2.16e-11 0 6.33506e-35
2793 1 0.000635 -0.00757197 -0.000635 -0.018144 1.44604e-16 -1.19339e-17 2.16e-11 5.26426e-25 3.23218e-35
2964 1 0.000635 -0.00537226 -0.000635 -0.018144 1.44604e-16 -1.19365e-17 2.16e-11 0 3.23218e-35
3137 1 0.000635 -0.00317256 -0.000635 -0.018144 4.13183e-17 -8.47033e-21 2.16e-11 0 5.17148e-36
3310 1 0.000635 -0.000972852 -0.000635 -0.018144 0 -8.47033e-21 2.16e-11 0 0
3483 1 0.000635 0.00122685 -0.000635 -0.018144 0 -8.47033e-21 2.16e-11 0 0
3656 1 0.000635 0.00342656 -0.000635 -0.018144 3.09811e-17 -5.97078e-18 2.16e-11 5.26426e-25 3.23218e-36
3829 1 0.000635 0.00562626 -0.000635 -0.018144 -1.44597e-16 -1.19339e-17 2.16e-11 5.26426e-25 3.23218e-35
4000 1 0.000635 0.00782597 -0.000635 -0.018144 0 -8.47033e-21 2.16e-11 0 0
4171 1 0.000635 0.0100257 -0.000635 -0.018144 1.44599e-16 -8.47033e-21 2.16e-11 0 6.33506e-35
4341 1 0.000635 0.0122254 -0.000635 -0.018144 1.07409e-06 3.09171e-06 8.50037e-06 3.36992e-10 9.77087e-14
4510 1 0.000635 0.0142889 -0.000634668 -0.0173969 -2.85111e-09 7.59097e-10 3.60333e-09 9.37719e-11 1.27254e-11
2284 1 0.000635 -0.0139914 0.000634568 -0.0172835 -7.25341e-11 -7.06332e-10 1.4734e-10 7.62097e-11 1.57272e-11
2368 1 0.000635 -0.0130095 -1.79622e-08 -0.0177799 1.01136e-08 -7.61407e-10 2.46161e-08 4.72252e-10 1.19279e-11
2453 1 0.000635 -0.0119714 0.000635 -0.018144 -3.18619e-06 -8.39128e-06 1.17757e-05 4.62155e-10 7.06627e-13
2537 1 0.000635 -0.0108715 0 -0.018144 -2.68109e-07 -1.27642e-09 -6.42591e-06 4.01378e-10 6.33506e-35
2623 1 0.000635 -0.00977167 0.000635 -0.018144 -1.44599e-16 -3.38813e-21 2.16e-11 0 6.33506e-35
2708 1 0.000635 -0.00867182 0 -0.018144 -8.26247e-17 5.92923e-21 2.16e-11 0 2.06859e-35
2794 1 0.000635 -0.00757197 0.000635 -0.018144 1.44602e-16 -3.38813e-21 2.16e-11 0 3.23218e-35
2879 1 0.000635 -0.00647211 0 -0.018144 -1.44605e-16 5.0822e-21 2.16e-11 0 3.23218e-35
2965 1 0.000635 -0.00537226 0.000635 -0.018144 1.44602e-16 -3.38813e-21 2.16e-11 0 3.23218e-35
3051 1 0.000635 -0.00427241 0 -0.018144 -1.03282e-16 5.92923e-21 2.16e-11 0 1.68073e-35
3138 1 0.000635 -0.00317256 0.000635 -0.018144 4.13149e-17 -3.38813e-21 2.16e-11 0 5.17148e-36
3224 1 0.000635 -0.0020727 0 -0.018144 0 6.77626e-21 2.16e-11 0 0
3311 1 0.000635 -0.000972852 0.000635 -0.018144 0 -3.38813e-21 2.16e-11 0 0
3397 1 0.000635 0.000127 0 -0.018144 0 6.77626e-21 2.16e-11 0 0
3484 1 0.000635 0.00122685 0.000635 -0.018144 0 -3.38813e-21 2.16e-11 0 0
3570 1 0.000635 0.0023267 0 -0.018144 -3.38813e-21 5.0822e-21 2.16e-11 5.26426e-25 0
3657 1 0.000635 0.00342656 0.000635 -0.018144 2.06574e-17 -3.38813e-21 2.16e-11 0 1.29287e-36
3743 1 0.000635 0.00452641 0 -0.018144 4.13132e-17 5.92923e-21 2.16e-11 0 1.29287e-35
3830 1 0.000635 0.00562626 0.000635 -0.018144 -1.44595e-16 -3.38813e-21 2.16e-11 0 3.23218e-35
3915 1 0.000635 0.00672611 0 -0.018144 8.26315e-17 5.92923e-21 2.16e-11 0 2.06859e-35
4001 1 0.000635 0.00782597 0.000635 -0.018144 0 -3.38813e-21 2.16e-11 0 0
4086 1 0.000635 0.00892582 0 -0.018144 -6.77626e-21 6.77626e-21 2.16e-11 0 0
4172 1 0.000635 0.0100257 0.000635 -0.018144 1.44599e-16 -3.38813e-21 2.16e-11 0 6.33506e-35
4257 1 0.000635 0.0111255 0 -0.018144 1.84334e-07 -6.34153e-12 -5.33395e-06 2.74075e-10 6.33506e-35
4342 1 0.000635 0.0122254 0.000635 -0.018144 1.07874e-06 -2.98237e-06 8.50123e-06 3.3698e-10 9.17104e-14
4426 1 0.000635 0.0132834 1.93895e-09 -0.0178432 4.69271e-09 2.79303e-10 -1.47373e-08 3.55544e-10 2.30746e-12
4511 1 0.000635 0.0142889 0.000634678 -0.0173969 1.55513e-09 5.70828e-10 -6.04482e-09 9.3807e-11 1.26881e-11
2285 1 0.000635 -0.0139909 0.00190383 -0.0172821 -6.40884e-09 -6.24027e-10 -1.43294e-08 7.86335e-11 2.34528e-11
2369 1 0.000635 -0.0130092 0.00126938 -0.0177791 -3.76938e-09 -6.38972e-10 -9.16558e-09 4.76028e-10 2.1483e-11
2454 1 0.000635 -0.0119714 0.001905 -0.018144 5.15449e-06 -3.07325e-05 8.65729e-06 4.73336e-10 8.62516e-12
2538 1 0.000635 -0.0108715 0.00127 -0.018144 -2.67335e-07 8.9552e-09 -6.42984e-06 4.01862e-10 6.33506e-35
2624 1 0.000635 -0.00977167 0.001905 -0.018144 -1.44595e-16 1.19221e-17 2.16e-11 0 6.39971e-35
2709 1 0.000635 -0.00867182 0.00127 -0.018144 -8.26264e-17 0 2.16e-11 0 2.06859e-35
2795 1 0.000635 -0.00757197 0.001905 -0.018144 1.44604e-16 1.19221e-17 2.16e-11 0 3.29682e-35
2880 1 0.000635 -0.00647211 0.00127 -0.018144 -1.44605e-16 0 2.16e-11 0 3.23218e-35
2966 1 0.000635 -0.00537226 0.001905 -0.018144 1.44604e-16 1.19238e-17 2.16e-11 0 3.29682e-35
3052 1 0.000635 -0.00427241 0.00127 -0.018144 -1.0328e-16 0 2.16e-11 0 1.68073e-35
3139 1 0.000635 -0.00317256 0.001905 -0.018144 4.13115e-17 1.19229e-17 2.16e-11 0 5.81792e-36
3225 1 0.000635 -0.0020727 0.00127 -0.018144 0 0 2.16e-11 0 0
3312 1 0.000635 -0.000972852 0.001905 -0.018144 0 1.19212e-17 2.16e-11 0 6.46435e-37
3398 1 0.000635 0.000127 0.00127 -0.018144 0 0 2.16e-11 0 0
3485 1 0.000635 0.00122685 0.001905 -0.018144 0 1.19212e-17 2.16e-11 0 6.46435e-37
3571 1 0.000635 0.0023267 0.00127 -0.018144 -6.77626e-21 0 2.16e-11 0 0
3658 1 0.000635 0.00342656 0.001905 -0.018144 2.06591e-17 1.19221e-17 2.16e-11 0 1.93931e-36
3744 1 0.000635 0.00452641 0.00127 -0.018144 4.13115e-17 0 2.16e-11 0 1.29287e-35
3831 1 0.000635 0.00562626 0.001905 -0.018144 -1.44597e-16 1.19221e-17 2.16e-11 0 3.29682e-35
3916 1 0.000635 0.00672611 0.00127 -0.018144 8.26331e-17 0 2.16e-11 0 2.06859e-35
4002 1 0.000635 0.00782597 0.001905 -0.018144 -3.38813e-21 1.19221e-17 2.16e-11 0 6.46435e-37
4087 1 0.000635 0.00892582 0.00127 -0.018144 -6.77626e-21 0 2.16e-11 0 0
4173 1 0.000635 0.0100257 0.001905 -0.018144 1.44599e-16 1.19212e-17 2.16e-11 0 6.39971e-35
4258 1 0.000635 0.0111255 0.00127 -0.018144 1.83583e-07 1.5723e-09 -5.33964e-06 2.74668e-10 6.33506e-35
4343 1 0.000635 0.0122254 0.001905 -0.018144 6.78161e-06 -8.17618e-06 1.05919e-05 3.2487e-10 8.00567e-13
4427 1 0.000635 0.013283 0.00126973 -0.0178416 1.52529e-11 4.51729e-10 -1.23458e-09 3.52227e-10 4.95746e-12
4512 1 0.000635 0.0142937 0.00190395 -0.0174062 2.36146e-09 7.63364e-10 -7.02793e-09 1.0835e-10 1.63481e-11