ITEM: TIMESTEP
440000
ITEM: NUMBER OF ATOMS
6793
ITEM: BOX BOUNDS ff ff ff
-8.9999999999999997e-02 8.9999999999999997e-02
-8.9999999999999997e-02 8.9999999999999997e-02
-4.0000000000000001e-02 4.0000000000000001e-02
ITEM: ATOMS id type radius x y z fx fy fz c_bendingE c_stretchingE
3386 1 0.000635 0.00012713 -0.0139689 -0.00468888 3.2384e-10 4.69669e-10 3.57977e-09 3.3342e-10 1.32502e-11
3559 1 0.000635 0.00232475 -0.0139637 -0.00460688 -8.40014e-11 4.99426e-10 6.64339e-09 4.42525e-11 8.87393e-11
3214 1 0.000635 -0.0020727 -0.0127 -0.004752 -4.38182e-05 2.07681e-05 1.68791e-06 3.6587e-10 2.11996e-11
3300 1 0.000635 -0.000972858 -0.0133348 -0.00473451 -8.24866e-11 -8.32429e-10 -1.45089e-08 2.6689e-10 1.16241e-11
3387 1 0.000635 0.000127 -0.0127 -0.004752 1.63994e-05 -3.43891e-05 1.52907e-06 5.15169e-11 4.40734e-12
3473 1 0.000635 0.00122681 -0.0133344 -0.00471032 2.3368e-11 6.03708e-10 9.25317e-09 4.08532e-11 1.45531e-11
3560 1 0.000635 0.0023267 -0.0127 -0.004752 3.37083e-05 -0.000150043 2.51345e-05 6.03602e-11 7.36831e-11
3646 1 0.000635 0.00342366 -0.0133286 -0.00462034 -5.35036e-10 8.78874e-10 9.22977e-09 5.3629e-11 4.71937e-11
3733 1 0.000635 0.00452405 -0.0126954 -0.00464124 -5.26917e-10 4.93677e-10 7.14291e-09 4.1144e-11 8.57412e-12
3042 1 0.000635 -0.00427241 -0.01143 -0.004752 -6.47598e-06 2.97567e-05 -1.07472e-06 1.99427e-10 5.40719e-12
3128 1 0.000635 -0.00317256 -0.012065 -0.004752 -2.25006e-05 4.69526e-05 -2.72386e-06 2.42439e-10 1.94692e-11
3215 1 0.000635 -0.0020727 -0.01143 -0.004752 8.57203e-09 -5.9098e-08 -2.98556e-06 8.47234e-11 5.17148e-36
3301 1 0.000635 -0.000972852 -0.012065 -0.004752 3.13084e-08 5.75711e-06 -2.85117e-06 7.38936e-11 1.55114e-13
3388 1 0.000635 0.000127 -0.01143 -0.004752 -1.14478e-09 0 -5.56425e-07 5.85497e-12 5.17148e-36
3474 1 0.000635 0.00122685 -0.012065 -0.004752 -9.00246e-09 -5.48666e-06 -1.06928e-06 3.69959e-11 1.34884e-13
3561 1 0.000635 0.0023267 -0.01143 -0.004752 4.82709e-09 -2.14904e-08 -2.25433e-06 4.9031e-11 5.17148e-36
3647 1 0.000635 0.00342656 -0.012065 -0.004752 2.30027e-05 -3.84262e-05 8.43053e-06 4.84295e-11 6.20222e-12
3734 1 0.000635 0.00452641 -0.01143 -0.004752 1.01085e-05 -1.81774e-05 4.84116e-06 3.41322e-11 1.33552e-12
3820 1 0.000635 0.00562455 -0.0120622 -0.00466305 -8.33737e-10 1.01683e-09 1.35804e-08 3.04679e-11 3.86321e-12
3906 1 0.000635 0.00672496 -0.0114287 -0.00468494 -8.96363e-10 9.57972e-10 1.44142e-08 4.20303e-11 7.85412e-12
2785 1 0.000635 -0.0075665 -0.0107867 -0.00460559 1.36973e-10 -3.56781e-11 -2.7707e-11 2.2009e-10 1.06202e-11
2956 1 0.000635 -0.00537226 -0.010795 -0.004752 6.91915e-06 1.95689e-05 -6.28407e-07 1.80891e-10 1.43857e-12
3129 1 0.000635 -0.00317256 -0.010795 -0.004752 -1.53699e-08 -5.15887e-08 -2.99167e-06 8.5083e-11 6.46435e-36
3302 1 0.000635 -0.000972852 -0.010795 -0.004752 5.24122e-11 0 -1.54235e-07 4.4969e-13 5.17148e-36
3475 1 0.000635 0.00122685 -0.010795 -0.004752 3.61962e-10 -1.69407e-21 -3.67517e-07 2.55347e-12 5.17148e-36
3648 1 0.000635 0.00342656 -0.010795 -0.004752 1.84551e-08 -1.22729e-08 -1.94508e-06 3.71868e-11 1.0343e-35
3821 1 0.000635 0.00562626 -0.010795 -0.004752 4.86602e-06 -1.78879e-05 3.37567e-06 2.39866e-11 1.18585e-12
3992 1 0.000635 0.00782522 -0.0107944 -0.00470299 -3.97921e-10 1.22754e-10 2.74701e-09 1.33211e-10 1.54581e-11
2615 1 0.000635 -0.00976699 -0.00951984 -0.00463138 -6.5706e-10 -1.33879e-09 -1.04476e-08 2.36099e-10 3.53293e-11
2700 1 0.000635 -0.00866676 -0.0101533 -0.00461852 -5.61522e-10 -1.87653e-09 -1.10478e-08 2.21243e-10 2.10706e-11
2786 1 0.000635 -0.00757197 -0.009525 -0.004752 3.15636e-05 8.48371e-06 -1.10496e-06 1.62592e-10 6.50553e-12
2871 1 0.000635 -0.00647211 -0.01016 -0.004752 1.94268e-05 1.32544e-05 -7.66868e-07 1.70256e-10 2.34746e-12
2957 1 0.000635 -0.00537226 -0.009525 -0.004752 -3.35367e-08 -3.40562e-08 -2.76149e-06 7.27226e-11 3.74932e-35
3043 1 0.000635 -0.00427241 -0.01016 -0.004752 -2.69089e-08 -4.31352e-08 -2.90861e-06 8.05304e-11 2.71503e-35
3130 1 0.000635 -0.00317256 -0.009525 -0.004752 2.0671e-17 0 2.16e-11 1.05285e-24 6.46435e-36
3216 1 0.000635 -0.0020727 -0.01016 -0.004752 -6.77626e-21 0 2.16e-11 0 5.17148e-36
3303 1 0.000635 -0.000972852 -0.009525 -0.004752 0 0 2.16e-11 0 5.17148e-36
3389 1 0.000635 0.000127 -0.01016 -0.004752 0 0 2.16e-11 0 5.17148e-36
3476 1 0.000635 0.00122685 -0.009525 -0.004752 0 0 2.16e-11 0 5.17148e-36
3562 1 0.000635 0.0023267 -0.01016 -0.004752 0 0 2.16e-11 0 5.17148e-36
3649 1 0.000635 0.00342656 -0.009525 -0.004752 4.13115e-17 0 2.16e-11 0 1.0343e-35
3735 1 0.000635 0.00452641 -0.01016 -0.004752 1.82312e-08 -4.50818e-09 -1.56802e-06 2.4683e-11 3.10289e-35
3822 1 0.000635 0.00562626 -0.009525 -0.004752 1.4484e-08 -1.06212e-09 -1.2165e-06 1.51748e-11 3.74932e-35
3907 1 0.000635 0.00672611 -0.01016 -0.004752 7.82878e-08 -2.35028e-05 1.9087e-06 2.94782e-11 2.49682e-12
3993 1 0.000635 0.00782597 -0.009525 -0.004752 -8.86427e-06 -1.43774e-05 -2.77209e-07 8.53634e-11 2.19943e-12
4078 1 0.000635 0.00892491 -0.0101582 -0.00469077 5.42539e-10 -9.09147e-10 -1.25568e-08 2.07348e-10 1.10944e-11
4164 1 0.000635 0.0100203 -0.00951854 -0.00461778 -1.28758e-09 8.86807e-10 6.78971e-09 2.297e-10 2.62038e-11
2446 1 0.000635 -0.0119682 -0.00825318 -0.00464493 1.1544e-10 -4.56903e-10 -3.49749e-09 3.23036e-10 8.66454e-12
2530 1 0.000635 -0.0108674 -0.00888664 -0.00464292 3.78888e-10 5.80072e-10 3.05621e-09 2.92608e-10 2.28281e-11
2616 1 0.000635 -0.00977167 -0.008255 -0.004752 2.16394e-05 -1.64106e-05 1.59462e-06 1.39461e-10 8.46261e-12
2701 1 0.000635 -0.00867182 -0.00889 -0.004752 4.1971e-05 3.19768e-06 -1.37669e-06 1.53902e-10 1.27172e-11
2787 1 0.000635 -0.00757197 -0.008255 -0.004752 -3.88303e-08 -1.62848e-08 -2.35559e-06 5.31205e-11 4.0079e-35
2872 1 0.000635 -0.00647211 -0.00889 -0.004752 -3.71434e-08 -2.47879e-08 -2.56904e-06 6.30743e-11 3.74932e-35
2958 1 0.000635 -0.00537226 -0.008255 -0.004752 1.44607e-16 -7.15799e-17 2.16e-11 5.26426e-25 4.0079e-35
3044 1 0.000635 -0.00427241 -0.00889 -0.004752 -1.03289e-16 -4.76841e-17 2.16e-11 1.05285e-24 2.71503e-35
3131 1 0.000635 -0.00317256 -0.008255 -0.004752 3.09912e-17 -7.75431e-17 2.16e-11 5.26426e-25 1.87466e-35
3217 1 0.000635 -0.0020727 -0.00889 -0.004752 -3.38813e-21 -4.76866e-17 2.16e-11 0 5.17148e-36
3304 1 0.000635 -0.000972852 -0.008255 -0.004752 0 -7.15833e-17 2.16e-11 0 1.0343e-35
3390 1 0.000635 0.000127 -0.00889 -0.004752 0 -4.76866e-17 2.16e-11 0 5.17148e-36
3477 1 0.000635 0.00122685 -0.008255 -0.004752 0 -7.15833e-17 2.16e-11 0 1.0343e-35
3563 1 0.000635 0.0023267 -0.00889 -0.004752 0 -4.76858e-17 2.16e-11 0 5.17148e-36
3650 1 0.000635 0.00342656 -0.008255 -0.004752 4.13098e-17 -7.15825e-17 2.16e-11 0 1.0343e-35
3736 1 0.000635 0.00452641 -0.00889 -0.004752 4.13115e-17 -4.76841e-17 2.16e-11 0 3.10289e-35
3823 1 0.000635 0.00562626 -0.008255 -0.004752 -1.446e-16 -7.15791e-17 2.16e-11 0 4.0079e-35
3908 1 0.000635 0.00672611 -0.00889 -0.004752 5.42685e-09 -8.15393e-09 -1.13131e-06 1.21297e-11 1.68073e-35
3994 1 0.000635 0.00782597 -0.008255 -0.004752 -6.18723e-09 -2.21347e-08 -1.61658e-06 3.01315e-11 1.0343e-35
4079 1 0.000635 0.00892582 -0.00889 -0.004752 -3.74038e-05 3.67928e-05 -5.70163e-06 1.67789e-10 9.69781e-12
4165 1 0.000635 0.0100257 -0.008255 -0.004752 8.36087e-05 -1.03243e-05 1.94935e-05 2.27041e-10 3.32231e-11
2362 1 0.000635 -0.0130685 -0.00761846 -0.00461947 -3.61379e-10 -6.56162e-10 -9.12907e-09 3.28303e-10 1.46488e-11
2447 1 0.000635 -0.0119711 -0.00698472 -0.00470685 3.64181e-10 -3.74693e-10 -2.87995e-10 9.29907e-11 6.28069e-12
2531 1 0.000635 -0.0108715 -0.00761998 -0.00473821 2.17039e-11 -1.18254e-10 -4.68217e-09 1.16812e-10 2.27457e-12
2617 1 0.000635 -0.00977167 -0.006985 -0.004752 -2.01049e-06 -1.13757e-06 -1.7562e-06 3.23055e-11 2.33607e-14
2702 1 0.000635 -0.00867182 -0.00762 -0.004752 -4.07366e-08 -6.61153e-09 -2.1393e-06 4.38227e-11 2.9736e-35
2788 1 0.000635 -0.00757197 -0.006985 -0.004752 1.44605e-16 -2.38958e-17 2.16e-11 0 4.0079e-35
2873 1 0.000635 -0.00647211 -0.00762 -0.004752 -1.44609e-16 2.38967e-17 2.16e-11 0 4.0079e-35
2959 1 0.000635 -0.00537226 -0.006985 -0.004752 1.44605e-16 -2.38958e-17 2.16e-11 0 4.0079e-35
3045 1 0.000635 -0.00427241 -0.00762 -0.004752 -1.13623e-16 2.98573e-17 2.16e-11 0 2.90896e-35
3132 1 0.000635 -0.00317256 -0.006985 -0.004752 3.09912e-17 -2.98573e-17 2.16e-11 0 1.87466e-35
3218 1 0.000635 -0.0020727 -0.00762 -0.004752 -1.69407e-21 2.38958e-17 2.16e-11 0 1.0343e-35
3305 1 0.000635 -0.000972852 -0.006985 -0.004752 0 -2.38967e-17 2.16e-11 0 1.0343e-35
3391 1 0.000635 0.000127 -0.00762 -0.004752 0 2.38967e-17 2.16e-11 0 1.0343e-35
3478 1 0.000635 0.00122685 -0.006985 -0.004752 0 -2.38967e-17 2.16e-11 0 1.0343e-35
3564 1 0.000635 0.0023267 -0.00762 -0.004752 0 2.38967e-17 2.16e-11 0 1.0343e-35
3651 1 0.000635 0.00342656 -0.006985 -0.004752 4.13081e-17 -2.38967e-17 2.16e-11 0 1.0343e-35
3737 1 0.000635 0.00452641 -0.00762 -0.004752 4.13217e-17 2.38958e-17 2.16e-11 0 2.06859e-35
3824 1 0.000635 0.00562626 -0.006985 -0.004752 -1.44599e-16 -2.3895e-17 2.16e-11 0 4.0079e-35
3909 1 0.000635 0.00672611 -0.00762 -0.004752 6.19757e-17 2.38958e-17 2.16e-11 0 2.9736e-35
3995 1 0.000635 0.00782597 -0.006985 -0.004752 -6.77626e-21 -2.38967e-17 2.16e-11 0 1.0343e-35
4080 1 0.000635 0.00892582 -0.00762 -0.004752 -1.65664e-08 -4.25664e-08 -3.07215e-06 1.28307e-10 1.0343e-35
4166 1 0.000635 0.0100257 -0.006985 -0.004752 -3.50943e-05 2.02021e-05 -5.32081e-06 1.82012e-10 7.54257e-12
4251 1 0.000635 0.0111233 -0.00761792 -0.00467738 -2.23611e-10 1.59053e-10 3.9886e-09 2.45743e-10 4.47773e-11
2363 1 0.000635 -0.0130683 -0.00634903 -0.0046303 2.12873e-09 -2.98197e-10 1.41046e-08 8.17643e-11 2.26467e-11
2448 1 0.000635 -0.0119711 -0.00571497 -0.00472258 -2.36223e-10 -2.9258e-10 -1.20145e-08 3.08307e-11 7.74861e-12
2532 1 0.000635 -0.0108715 -0.00635 -0.004752 -2.48892e-05 -9.81563e-06 8.17424e-07 2.39823e-11 2.33796e-12
2618 1 0.000635 -0.00977167 -0.005715 -0.004752 3.60251e-10 -6.23973e-10 -3.9802e-07 2.99504e-12 6.85221e-35
2703 1 0.000635 -0.00867182 -0.00635 -0.004752 2.28131e-11 -3.95134e-11 -1.21616e-07 2.79613e-13 2.9736e-35
2789 1 0.000635 -0.00757197 -0.005715 -0.004752 1.44602e-16 4.76832e-17 2.16e-11 0 3.74932e-35
2874 1 0.000635 -0.00647211 -0.00635 -0.004752 -1.44609e-16 7.15816e-17 2.16e-11 0 4.0079e-35
2960 1 0.000635 -0.00537226 -0.005715 -0.004752 1.44604e-16 4.76841e-17 2.16e-11 5.26426e-25 3.74932e-35
3046 1 0.000635 -0.00427241 -0.00635 -0.004752 -1.13621e-16 7.75431e-17 2.16e-11 0 2.90896e-35
3133 1 0.000635 -0.00317256 -0.005715 -0.004752 2.0671e-17 4.76858e-17 2.16e-11 5.26426e-25 6.46435e-36
3219 1 0.000635 -0.0020727 -0.00635 -0.004752 -5.0822e-21 7.15842e-17 2.16e-11 0 1.0343e-35
3306 1 0.000635 -0.000972852 -0.005715 -0.004752 0 4.76866e-17 2.16e-11 0 5.17148e-36
3392 1 0.000635 0.000127 -0.00635 -0.004752 0 7.1585e-17 2.16e-11 0 1.0343e-35
3479 1 0.000635 0.00122685 -0.005715 -0.004752 0 4.76866e-17 2.16e-11 0 5.17148e-36
3565 1 0.000635 0.0023267 -0.00635 -0.004752 0 7.15842e-17 2.16e-11 0 1.0343e-35
3652 1 0.000635 0.00342656 -0.005715 -0.004752 4.13098e-17 4.76858e-17 2.16e-11 0 1.0343e-35
3738 1 0.000635 0.00452641 -0.00635 -0.004752 4.13183e-17 7.15816e-17 2.16e-11 0 2.06859e-35
3825 1 0.000635 0.00562626 -0.005715 -0.004752 -1.44597e-16 4.76841e-17 2.16e-11 0 3.74932e-35
3910 1 0.000635 0.00672611 -0.00635 -0.004752 6.19774e-17 7.15825e-17 2.16e-11 0 2.9736e-35
3996 1 0.000635 0.00782597 -0.005715 -0.004752 -6.77626e-21 4.76849e-17 2.16e-11 0 5.17148e-36
4081 1 0.000635 0.00892582 -0.00635 -0.004752 -3.12627e-09 -5.41487e-09 -6.58492e-07 8.20261e-12 1.0343e-35
4167 1 0.000635 0.0100257 -0.005715 -0.004752 -8.48715e-09 -1.47002e-08 -1.69397e-06 5.45478e-11 6.85221e-35
4252 1 0.000635 0.0111255 -0.00635 -0.004752 -4.95194e-05 -1.11961e-06 -4.31483e-06 2.22189e-10 8.061e-12
4337 1 0.000635 0.0122243 -0.005715 -0.00471681 -7.46526e-11 9.21832e-11 2.89548e-09 2.63843e-10 1.64931e-11
2364 1 0.000635 -0.0130657 -0.00507918 -0.00462432 2.03197e-09 -2.88649e-10 1.33068e-08 4.31465e-11 3.85853e-11
2533 1 0.000635 -0.0108715 -0.00508 -0.004752 -4.94528e-06 -2.87525e-06 -1.24354e-06 3.55112e-11 1.46758e-13
2704 1 0.000635 -0.00867182 -0.00508 -0.004752 -6.19774e-17 -2.3845e-17 2.16e-11 0 1.42216e-35
2875 1 0.000635 -0.00647211 -0.00508 -0.004752 -1.44605e-16 -2.38442e-17 2.16e-11 0 3.49075e-35
3047 1 0.000635 -0.00427241 -0.00508 -0.004752 -1.03287e-16 -2.38433e-17 2.16e-11 1.57928e-24 2.45645e-35
3220 1 0.000635 -0.0020727 -0.00508 -0.004752 -3.38813e-21 -2.38442e-17 2.16e-11 0 2.58574e-36
3393 1 0.000635 0.000127 -0.00508 -0.004752 0 -2.38442e-17 2.16e-11 0 2.58574e-36
3566 1 0.000635 0.0023267 -0.00508 -0.004752 -3.38813e-21 -2.38459e-17 2.16e-11 0 2.58574e-36
3739 1 0.000635 0.00452641 -0.00508 -0.004752 4.13081e-17 -2.38433e-17 2.16e-11 5.26426e-25 2.84431e-35
3911 1 0.000635 0.00672611 -0.00508 -0.004752 6.19859e-17 -2.38442e-17 2.16e-11 0 1.42216e-35
4082 1 0.000635 0.00892582 -0.00508 -0.004752 -8.47033e-21 -2.3845e-17 2.16e-11 0 2.58574e-36
4253 1 0.000635 0.0111255 -0.00508 -0.004752 -2.02259e-05 1.16239e-05 -3.85408e-06 1.41553e-10 2.49493e-12
4422 1 0.000635 0.01332 -0.00507844 -0.00463946 4.39945e-10 -1.2651e-10 -3.4414e-09 3.03201e-10 1.13229e-11
2365 1 0.000635 -0.0130631 -0.00380971 -0.00461383 -1.90468e-09 -1.77283e-11 -1.42794e-08 6.14688e-11 1.72793e-11
2449 1 0.000635 -0.0119714 -0.004445 -0.004752 -8.89874e-05 -3.47581e-05 1.58097e-05 5.73807e-11 2.86619e-11
2534 1 0.000635 -0.0108715 -0.00381 -0.004752 -2.82579e-08 -1.79705e-08 -2.35301e-06 5.25976e-11 4.65433e-35
2619 1 0.000635 -0.00977167 -0.004445 -0.004752 -4.37075e-10 7.57036e-10 -2.59408e-07 1.27207e-12 6.01185e-35
2705 1 0.000635 -0.00867182 -0.00381 -0.004752 -8.2623e-17 0 2.16e-11 1.05285e-24 2.06859e-35
2790 1 0.000635 -0.00757197 -0.004445 -0.004752 1.44602e-16 -5.96282e-17 2.16e-11 5.26426e-25 3.74932e-35
2876 1 0.000635 -0.00647211 -0.00381 -0.004752 -1.44605e-16 0 2.16e-11 0 3.23218e-35
2961 1 0.000635 -0.00537226 -0.004445 -0.004752 1.44604e-16 -5.9629e-17 2.16e-11 5.26426e-25 3.74932e-35
3048 1 0.000635 -0.00427241 -0.00381 -0.004752 -1.03291e-16 0 2.16e-11 0 1.68073e-35
3134 1 0.000635 -0.00317256 -0.004445 -0.004752 3.09963e-17 -5.36693e-17 2.16e-11 1.57928e-24 8.40366e-36
3221 1 0.000635 -0.0020727 -0.00381 -0.004752 -6.77626e-21 0 2.16e-11 2.10571e-24 0
3307 1 0.000635 -0.000972852 -0.004445 -0.004752 0 -4.77053e-17 2.16e-11 1.05285e-24 5.17148e-36
3394 1 0.000635 0.000127 -0.00381 -0.004752 0 0 2.16e-11 1.05285e-24 0
3480 1 0.000635 0.00122685 -0.004445 -0.004752 0 -4.77053e-17 2.16e-11 1.05285e-24 5.17148e-36
3567 1 0.000635 0.0023267 -0.00381 -0.004752 0 0 2.16e-11 2.10571e-24 0
3653 1 0.000635 0.00342656 -0.004445 -0.004752 3.09811e-17 -5.36701e-17 2.16e-11 1.05285e-24 8.40366e-36
3740 1 0.000635 0.00452641 -0.00381 -0.004752 4.13217e-17 7.70372e-34 2.16e-11 0 1.29287e-35
3826 1 0.000635 0.00562626 -0.004445 -0.004752 -1.44597e-16 -5.9629e-17 2.16e-11 5.26426e-25 3.74932e-35
3912 1 0.000635 0.00672611 -0.00381 -0.004752 8.26298e-17 0 2.16e-11 1.05285e-24 2.06859e-35
3997 1 0.000635 0.00782597 -0.004445 -0.004752 -3.38813e-21 -4.77061e-17 2.16e-11 1.05285e-24 5.17148e-36
4083 1 0.000635 0.00892582 -0.00381 -0.004752 -6.77626e-21 0 2.16e-11 1.05285e-24 0
4168 1 0.000635 0.0100257 -0.004445 -0.004752 2.32208e-09 4.02195e-09 -3.10424e-07 1.82204e-12 6.01185e-35
4254 1 0.000635 0.0111255 -0.00381 -0.004752 1.26346e-08 -2.94136e-09 -1.71852e-06 2.86323e-11 4.65433e-35
4338 1 0.000635 0.0122254 -0.004445 -0.004752 3.31728e-05 6.88502e-06 1.49915e-06 2.57053e-10 1.70105e-11
4423 1 0.000635 0.0133237 -0.00380926 -0.00468153 1.57384e-09 -2.40634e-10 -2.03688e-08 1.70188e-10 3.20982e-11
2366 1 0.000635 -0.0130627 -0.00253987 -0.00461272 -6.41797e-10 -7.17656e-12 -5.75521e-09 6.39468e-11 4.446e-12
2450 1 0.000635 -0.0119714 -0.003175 -0.004752 -3.0641e-05 4.77262e-08 7.87696e-06 6.25225e-11 2.93161e-12
2535 1 0.000635 -0.0108715 -0.00254 -0.004752 -3.57975e-08 -3.49939e-09 -2.43898e-06 5.64251e-11 6.33506e-35
2620 1 0.000635 -0.00977167 -0.003175 -0.004752 -1.3427e-16 4.1748e-17 2.16e-11 5.26426e-25 5.81792e-35
2706 1 0.000635 -0.00867182 -0.00254 -0.004752 -7.2301e-17 -5.97417e-18 2.16e-11 0 1.61609e-35
2791 1 0.000635 -0.00757197 -0.003175 -0.004752 1.44602e-16 4.77053e-17 2.16e-11 5.26426e-25 3.55539e-35
2877 1 0.000635 -0.00647211 -0.00254 -0.004752 -1.44605e-16 -1.19365e-17 2.16e-11 0 3.23218e-35
2962 1 0.000635 -0.00537226 -0.003175 -0.004752 1.44604e-16 4.7707e-17 2.16e-11 0 3.55539e-35
3049 1 0.000635 -0.00427241 -0.00254 -0.004752 -1.03284e-16 -1.19373e-17 2.16e-11 5.26426e-25 1.93931e-35
3135 1 0.000635 -0.00317256 -0.003175 -0.004752 3.09963e-17 4.17472e-17 2.16e-11 1.05285e-24 6.46435e-36
3222 1 0.000635 -0.0020727 -0.00254 -0.004752 0 -1.43996e-20 2.16e-11 0 0
3308 1 0.000635 -0.000972852 -0.003175 -0.004752 0 3.57823e-17 2.16e-11 1.05285e-24 3.23218e-36
3395 1 0.000635 0.000127 -0.00254 -0.004752 0 -1.35525e-20 2.16e-11 0 0
3481 1 0.000635 0.00122685 -0.003175 -0.004752 0 3.57823e-17 2.16e-11 1.05285e-24 3.23218e-36
3568 1 0.000635 0.0023267 -0.00254 -0.004752 -6.77626e-21 -1.35525e-20 2.16e-11 0 0
3654 1 0.000635 0.00342656 -0.003175 -0.004752 3.09777e-17 4.17463e-17 2.16e-11 1.05285e-24 6.46435e-36
3741 1 0.000635 0.00452641 -0.00254 -0.004752 4.13115e-17 -1.19382e-17 2.16e-11 5.26426e-25 1.93931e-35
3827 1 0.000635 0.00562626 -0.003175 -0.004752 -1.44595e-16 4.77053e-17 2.16e-11 5.26426e-25 3.55539e-35
3913 1 0.000635 0.00672611 -0.00254 -0.004752 7.23095e-17 -5.97502e-18 2.16e-11 0 1.61609e-35
3998 1 0.000635 0.00782597 -0.003175 -0.004752 0 3.57823e-17 2.16e-11 1.05285e-24 3.23218e-36
4084 1 0.000635 0.00892582 -0.00254 -0.004752 -8.47033e-21 -1.27055e-20 2.16e-11 0 0
4169 1 0.000635 0.0100257 -0.003175 -0.004752 1.3427e-16 4.1748e-17 2.16e-11 5.26426e-25 5.81792e-35
4255 1 0.000635 0.0111255 -0.00254 -0.004752 9.32775e-09 -1.39472e-08 -1.44691e-06 2.02045e-11 6.33506e-35
4339 1 0.000635 0.0122254 -0.003175 -0.004752 4.27792e-05 1.26128e-05 4.33621e-06 3.2557e-11 7.01294e-12
4424 1 0.000635 0.0133227 -0.00253959 -0.00466966 4.82265e-10 -3.15899e-11 -1.01943e-08 3.70405e-11 1.56046e-11
2367 1 0.000635 -0.0130627 -0.00126995 -0.00461356 -2.09601e-09 -2.36941e-11 -1.58598e-08 6.4379e-11 2.79004e-12
2451 1 0.000635 -0.0119714 -0.001905 -0.004752 -2.08835e-05 1.15607e-06 6.7579e-06 6.31853e-11 1.38096e-12
2536 1 0.000635 -0.0108715 -0.00127 -0.004752 -3.69799e-08 -4.40737e-10 -2.44506e-06 5.67114e-11 6.33506e-35
2621 1 0.000635 -0.00977167 -0.001905 -0.004752 -1.44592e-16 -1.19229e-17 2.16e-11 5.26426e-25 6.39971e-35
2707 1 0.000635 -0.00867182 -0.00127 -0.004752 -7.2301e-17 5.96909e-18 2.16e-11 5.26426e-25 1.61609e-35
2792 1 0.000635 -0.00757197 -0.001905 -0.004752 1.44605e-16 -1.19229e-17 2.16e-11 0 3.29682e-35
2878 1 0.000635 -0.00647211 -0.00127 -0.004752 -1.44605e-16 1.19331e-17 2.16e-11 0 3.23218e-35
2963 1 0.000635 -0.00537226 -0.001905 -0.004752 1.44602e-16 -1.19246e-17 2.16e-11 0 3.29682e-35
3050 1 0.000635 -0.00427241 -0.00127 -0.004752 -1.13613e-16 5.96993e-18 2.16e-11 0 2.13324e-35
3136 1 0.000635 -0.00317256 -0.001905 -0.004752 4.13081e-17 -1.19229e-17 2.16e-11 0 5.81792e-36
3223 1 0.000635 -0.0020727 -0.00127 -0.004752 0 7.6233e-21 2.16e-11 0 0
3309 1 0.000635 -0.000972852 -0.001905 -0.004752 0 -1.19229e-17 2.16e-11 0 6.46435e-37
3396 1 0.000635 0.000127 -0.00127 -0.004752 0 6.77626e-21 2.16e-11 0 0
3482 1 0.000635 0.00122685 -0.001905 -0.004752 0 -1.19229e-17 2.16e-11 0 6.46435e-37
3569 1 0.000635 0.0023267 -0.00127 -0.004752 -6.77626e-21 6.77626e-21 2.16e-11 0 0
3655 1 0.000635 0.00342656 -0.001905 -0.004752 2.06608e-17 -1.19229e-17 2.16e-11 0 1.93931e-36
3742 1 0.000635 0.00452641 -0.00127 -0.004752 4.13149e-17 1.19331e-17 2.16e-11 5.26426e-25 1.93931e-35
3828 1 0.000635 0.00562626 -0.001905 -0.004752 -1.44599e-16 -1.19229e-17 2.16e-11 0 3.29682e-35
3914 1 0.000635 0.00672611 -0.00127 -0.004752 7.23078e-17 5.96909e-18 2.16e-11 5.26426e-25 1.61609e-35
3999 1 0.000635 0.00782597 -0.001905 -0.004752 -6.77626e-21 -1.19229e-17 2.16e-11 5.26426e-25 6.46435e-37
4085 1 0.000635 0.00892582 -0.00127 -0.004752 -6.77626e-21 6.77626e-21 2.16e-11 0 0
4170 1 0.000635 0.0100257 -0.001905 -0.004752 1.44599e-16 -1.19229e-17 2.16e-11 0 6.39971e-35
4256 1 0.000635 0.0111255 -0.00127 -0.004752 1.2994e-08 -8.56493e-09 -1.58426e-06 2.39193e-11 6.33506e-35
4340 1 0.000635 0.0122254 -0.001905 -0.004752 2.94754e-05 2.419e-06 4.94297e-06 2.59917e-11 2.71587e-12
4425 1 0.000635 0.0133216 -0.00126984 -0.00465837 1.40809e-09 6.08744e-11 -1.7769e-08 2.98985e-11 5.29279e-12
2452 1 0.000635 -0.0119714 -0.000635 -0.004752 -1.90536e-05 4.77592e-07 6.42884e-06 6.36296e-11 1.14221e-12
2622 1 0.000635 -0.00977167 -0.000635 -0.004752 -1.44599e-16 -8.47033e-21 2.16e-11 0 6.33506e-35
2793 1 0.000635 -0.00757197 -0.000635 -0.004752 1.44604e-16 -1.19339e-17 2.16e-11 5.26426e-25 3.23218e-35
2964 1 0.000635 -0.00537226 -0.000635 -0.004752 1.44604e-16 -1.19365e-17 2.16e-11 0 3.23218e-35
3137 1 0.000635 -0.00317256 -0.000635 -0.004752 4.13183e-17 -8.47033e-21 2.16e-11 0 5.17148e-36
3310 1 0.000635 -0.000972852 -0.000635 -0.004752 0 -8.47033e-21 2.16e-11 0 0
3483 1 0.000635 0.00122685 -0.000635 -0.004752 0 -8.47033e-21 2.16e-11 0 0
3656 1 0.000635 0.00342656 -0.000635 -0.004752 3.09811e-17 -5.97078e-18 2.16e-11 5.26426e-25 3.23218e-36
3829 1 0.000635 0.00562626 -0.000635 -0.004752 -1.44597e-16 -1.19339e-17 2.16e-11 5.26426e-25 3.23218e-35
4000 1 0.000635 0.00782597 -0.000635 -0.004752 0 -8.47033e-21 2.16e-11 0 0
4171 1 0.000635 0.0100257 -0.000635 -0.004752 1.44599e-16 -8.47033e-21 2.16e-11 0 6.33506e-35
4341 1 0.000635 0.0122254 -0.000635 -0.004752 1.93885e-05 3.72946e-07 4.56923e-06 2.92312e-11 1.16083e-12
2368 1 0.000635 -0.0130628 -3.62503e-15 -0.004614 -9.68204e-10 -4.32641e-14 -8.50012e-09 6.44381e-11 2.55568e-12
2453 1 0.000635 -0.0119714 0.000635 -0.004752 -1.90536e-05 -4.77592e-07 6.42884e-06 6.36296e-11 1.14221e-12
2537 1 0.000635 -0.0108715 0 -0.004752 -3.70683e-08 7.76196e-17 -2.44159e-06 5.65493e-11 6.33506e-35
2623 1 0.000635 -0.00977167 0.000635 -0.004752 -1.44599e-16 -3.38813e-21 2.16e-11 0 6.33506e-35
2708 1 0.000635 -0.00867182 0 -0.004752 -8.26247e-17 5.92923e-21 2.16e-11 0 2.06859e-35
2794 1 0.000635 -0.00757197 0.000635 -0.004752 1.44602e-16 -3.38813e-21 2.16e-11 0 3.23218e-35
2879 1 0.000635 -0.00647211 0 -0.004752 -1.44605e-16 5.0822e-21 2.16e-11 0 3.23218e-35
2965 1 0.000635 -0.00537226 0.000635 -0.004752 1.44602e-16 -3.38813e-21 2.16e-11 0 3.23218e-35
3051 1 0.000635 -0.00427241 0 -0.004752 -1.03282e-16 5.92923e-21 2.16e-11 0 1.68073e-35
3138 1 0.000635 -0.00317256 0.000635 -0.004752 4.13149e-17 -3.38813e-21 2.16e-11 0 5.17148e-36
3224 1 0.000635 -0.0020727 0 -0.004752 0 6.77626e-21 2.16e-11 0 0
3311 1 0.000635 -0.000972852 0.000635 -0.004752 0 -3.38813e-21 2.16e-11 0 0
3397 1 0.000635 0.000127 0 -0.004752 0 6.77626e-21 2.16e-11 0 0
3484 1 0.000635 0.00122685 0.000635 -0.004752 0 -3.38813e-21 2.16e-11 0 0
3570 1 0.000635 0.0023267 0 -0.004752 -3.38813e-21 5.0822e-21 2.16e-11 5.26426e-25 0
3657 1 0.000635 0.00342656 0.000635 -0.004752 2.06574e-17 -3.38813e-21 2.16e-11 0 1.29287e-36
3743 1 0.000635 0.00452641 0 -0.004752 4.13132e-17 5.92923e-21 2.16e-11 0 1.29287e-35
3830 1 0.000635 0.00562626 0.000635 -0.004752 -1.44595e-16 -3.38813e-21 2.16e-11 0 3.23218e-35
3915 1 0.000635 0.00672611 0 -0.004752 8.26315e-17 5.92923e-21 2.16e-11 0 2.06859e-35
4001 1 0.000635 0.00782597 0.000635 -0.004752 0 -3.38813e-21 2.16e-11 0 0
4086 1 0.000635 0.00892582 0 -0.004752 -6.77626e-21 6.77626e-21 2.16e-11 0 0
4172 1 0.000635 0.0100257 0.000635 -0.004752 1.44599e-16 -3.38813e-21 2.16e-11 0 6.33506e-35
4257 1 0.000635 0.0111255 0 -0.004752 1.49932e-08 7.3924e-17 -1.65118e-06 2.58056e-11 6.33506e-35
4342 1 0.000635 0.0122254 0.000635 -0.004752 1.93885e-05 -3.72946e-07 4.56923e-06 2.92312e-11 1.16083e-12
4426 1 0.000635 0.0133212 -4.02652e-17 -0.00465467 3.3951e-09 -5.53311e-14 -3.62249e-08 3.15695e-11 3.10565e-12
2369 1 0.000635 -0.0130627 0.00126995 -0.00461356 -2.09595e-09 2.37345e-11 -1.58597e-08 6.4379e-11 2.79004e-12
2454 1 0.000635 -0.0119714 0.001905 -0.004752 -2.08835e-05 -1.15607e-06 6.7579e-06 6.31853e-11 1.38096e-12
2538 1 0.000635 -0.0108715 0.00127 -0.004752 -3.69799e-08 4.40737e-10 -2.44506e-06 5.67114e-11 6.33506e-35
2624 1 0.000635 -0.00977167 0.001905 -0.004752 -1.44595e-16 1.19221e-17 2.16e-11 0 6.39971e-35
2709 1 0.000635 -0.00867182 0.00127 -0.004752 -8.26264e-17 0 2.16e-11 0 2.06859e-35
2795 1 0.000635 -0.00757197 0.001905 -0.004752 1.44604e-16 1.19221e-17 2.16e-11 0 3.29682e-35
2880 1 0.000635 -0.00647211 0.00127 -0.004752 -1.44605e-16 0 2.16e-11 0 3.23218e-35
2966 1 0.000635 -0.00537226 0.001905 -0.004752 1.44604e-16 1.19238e-17 2.16e-11 0 3.29682e-35
3052 1 0.000635 -0.00427241 0.00127 -0.004752 -1.0328e-16 0 2.16e-11 0 1.68073e-35
3139 1 0.000635 -0.00317256 0.001905 -0.004752 4.13115e-17 1.19229e-17 2.16e-11 0 5.81792e-36
3225 1 0.000635 -0.0020727 0.00127 -0.004752 0 0 2.16e-11 0 0
3312 1 0.000635 -0.000972852 0.001905 -0.004752 0 1.19212e-17 2.16e-11 0 6.46435e-37
3398 1 0.000635 0.000127 0.00127 -0.004752 0 0 2.16e-11 0 0
3485 1 0.000635 0.00122685 0.001905 -0.004752 0 1.19212e-17 2.16e-11 0 6.46435e-37
3571 1 0.000635 0.0023267 0.00127 -0.004752 -6.77626e-21 0 2.16e-11 0 0
3658 1 0.000635 0.00342656 0.001905 -0.004752 2.06591e-17 1.19221e-17 2.16e-11 0 1.93931e-36
3744 1 0.000635 0.00452641 0.00127 -0.004752 4.13115e-17 0 2.16e-11 0 1.29287e-35
3831 1 0.000635 0.00562626 0.001905 -0.004752 -1.44597e-16 1.19221e-17 2.16e-11 0 3.29682e-35
3916 1 0.000635 0.00672611 0.00127 -0.004752 8.26331e-17 0 2.16e-11 0 2.06859e-35
4002 1 0.000635 0.00782597 0.001905 -0.004752 -3.38813e-21 1.19221e-17 2.16e-11 0 6.46435e-37
4087 1 0.000635 0.00892582 0.00127 -0.004752 -6.77626e-21 0 2.16e-11 0 0
4173 1 0.000635 0.0100257 0.001905 -0.004752 1.44599e-16 1.19212e-17 2.16e-11 0 6.39971e-35
4258 1 0.000635 0.0111255 0.00127 -0.004752 1.2994e-08 8.56493e-09 -1.58426e-06 2.39193e-11 6.33506e-35
4343 1 0.000635 0.0122254 0.001905 -0.004752 2.94754e-05 -2.419e-06 4.94297e-06 2.59917e-11 2.71587e-12
4427 1 0.000635 0.0133216 0.00126984 -0.00465837 1.40804e-09 -6.08711e-11 -1.7769e-08 2.98985e-11 5.29279e-12
2370 1 0.000635 -0.0130627 0.00253987 -0.00461272 -6.41722e-10 7.12796e-12 -5.7552e-09 6.39468e-11 4.446e-12
2455 1 0.000635 -0.0119714 0.003175 -0.004752 -3.0641e-05 -4.77264e-08 7.87696e-06 6.25225e-11 2.93161e-12
2539 1 0.000635 -0.0108715 0.00254 -0.004752 -3.57975e-08 3.49939e-09 -2.43898e-06 5.64251e-11 6.33506e-35
2625 1 0.000635 -0.00977167 0.003175 -0.004752 -1.3427e-16 -4.1748e-17 2.16e-11 5.26426e-25 5.81792e-35
2710 1 0.000635 -0.00867182 0.00254 -0.004752 -7.2301e-17 5.97417e-18 2.16e-11 0 1.61609e-35
2796 1 0.000635 -0.00757197 0.003175 -0.004752 1.44602e-16 -4.77053e-17 2.16e-11 5.26426e-25 3.55539e-35
2881 1 0.000635 -0.00647211 0.00254 -0.004752 -1.44605e-16 1.19365e-17 2.16e-11 0 3.23218e-35
2967 1 0.000635 -0.00537226 0.003175 -0.004752 1.44604e-16 -4.7707e-17 2.16e-11 0 3.55539e-35
3053 1 0.000635 -0.00427241 0.00254 -0.004752 -1.03284e-16 1.19373e-17 2.16e-11 5.26426e-25 1.93931e-35
3140 1 0.000635 -0.00317256 0.003175 -0.004752 3.09963e-17 -4.17472e-17 2.16e-11 1.05285e-24 6.46435e-36
3226 1 0.000635 -0.0020727 0.00254 -0.004752 0 1.43996e-20 2.16e-11 0 0
3313 1 0.000635 -0.000972852 0.003175 -0.004752 0 -3.57823e-17 2.16e-11 1.05285e-24 3.23218e-36
3399 1 0.000635 0.000127 0.00254 -0.004752 0 1.35525e-20 2.16e-11 0 0
3486 1 0.000635 0.00122685 0.003175 -0.004752 0 -3.57823e-17 2.16e-11 1.05285e-24 3.23218e-36
3572 1 0.000635 0.0023267 0.00254 -0.004752 -6.77626e-21 1.35525e-20 2.16e-11 0 0
3659 1 0.000635 0.00342656 0.003175 -0.004752 3.09777e-17 -4.17463e-17 2.16e-11 1.05285e-24 6.46435e-36
3745 1 0.000635 0.00452641 0.00254 -0.004752 4.13115e-17 1.19382e-17 2.16e-11 5.26426e-25 1.93931e-35
3832 1 0.000635 0.00562626 0.003175 -0.004752 -1.44595e-16 -4.77053e-17 2.16e-11 5.26426e-25 3.55539e-35
3917 1 0.000635 0.00672611 0.00254 -0.004752 7.23095e-17 5.97502e-18 2.16e-11 0 1.61609e-35
4003 1 0.000635 0.00782597 0.003175 -0.004752 0 -3.57823e-17 2.16e-11 1.05285e-24 3.23218e-36
4088 1 0.000635 0.00892582 0.00254 -0.004752 -8.47033e-21 1.27055e-20 2.16e-11 0 0
4174 1 0.000635 0.0100257 0.003175 -0.004752 1.3427e-16 -4.1748e-17 2.16e-11 5.26426e-25 5.81792e-35
4259 1 0.000635 0.0111255 0.00254 -0.004752 9.32775e-09 1.39472e-08 -1.44691e-06 2.02045e-11 6.33506e-35
4344 1 0.000635 0.0122254 0.003175 -0.004752 4.27792e-05 -1.26128e-05 4.33621e-06 3.2557e-11 7.01294e-12
4428 1 0.000635 0.0133227 0.00253959 -0.00466966 4.82082e-10 3.16096e-11 -1.01943e-08 3.70405e-11 1.56046e-11
2371 1 0.000635 -0.0130631 0.00380971 -0.00461383 -1.90457e-09 1.77535e-11 -1.42794e-08 6.14688e-11 1.72793e-11
2456 1 0.000635 -0.0119714 0.004445 -0.004752 -8.89874e-05 3.47581e-05 1.58097e-05 5.73807e-11 2.86619e-11
2540 1 0.000635 -0.0108715 0.00381 -0.004752 -2.82579e-08 1.79705e-08 -2.35301e-06 5.25976e-11 4.65433e-35
2626 1 0.000635 -0.00977167 0.004445 -0.004752 -4.37075e-10 -7.57036e-10 -2.59408e-07 1.27207e-12 6.01185e-35
2711 1 0.000635 -0.00867182 0.00381 -0.004752 -8.2623e-17 0 2.16e-11 1.05285e-24 2.06859e-35
2797 1 0.000635 -0.00757197 0.004445 -0.004752 1.44602e-16 5.96282e-17 2.16e-11 5.26426e-25 3.74932e-35
2882 1 0.000635 -0.00647211 0.00381 -0.004752 -1.44605e-16 0 2.16e-11 0 3.23218e-35
2968 1 0.000635 -0.00537226 0.004445 -0.004752 1.44604e-16 5.9629e-17 2.16e-11 5.26426e-25 3.74932e-35
3054 1 0.000635 -0.00427241 0.00381 -0.004752 -1.03291e-16 0 2.16e-11 0 1.68073e-35
3141 1 0.000635 -0.00317256 0.004445 -0.004752 3.09963e-17 5.36693e-17 2.16e-11 1.57928e-24 8.40366e-36
3227 1 0.000635 -0.0020727 0.00381 -0.004752 -6.77626e-21 0 2.16e-11 2.10571e-24 0
3314 1 0.000635 -0.000972852 0.004445 -0.004752 0 4.77053e-17 2.16e-11 1.05285e-24 5.17148e-36
3400 1 0.000635 0.000127 0.00381 -0.004752 0 0 2.16e-11 1.05285e-24 0
3487 1 0.000635 0.00122685 0.004445 -0.004752 0 4.77053e-17 2.16e-11 1.05285e-24 5.17148e-36