ITEM: TIMESTEP
590000
ITEM: NUMBER OF ATOMS
6793
ITEM: BOX BOUNDS ff ff ff
-8.9999999999999997e-02 8.9999999999999997e-02
-8.9999999999999997e-02 8.9999999999999997e-02
-4.0000000000000001e-02 4.0000000000000001e-02
ITEM: ATOMS id type radius x y z fx fy fz c_bendingE c_stretchingE
3384 1 0.000635 0.000112193 -0.0164553 -0.00580082 -7.64598e-11 -2.06312e-10 -7.91955e-10 6.93831e-10 2.7525e-11
3385 1 0.000635 0.000124181 -0.0152267 -0.00612096 -4.00238e-11 4.89352e-11 1.73177e-10 5.36465e-10 3.22555e-11
3471 1 0.000635 0.00121765 -0.0158474 -0.00594412 -1.58873e-10 5.46474e-10 2.68032e-09 5.68974e-10 6.99818e-11
3558 1 0.000635 0.00231489 -0.0152086 -0.00594881 2.50172e-10 -3.2966e-10 -1.79335e-09 4.55949e-11 7.08393e-11
3731 1 0.000635 0.00450335 -0.0151852 -0.00573902 1.74125e-11 2.79124e-10 9.16889e-10 4.58897e-12 1.65399e-11
3213 1 0.000635 -0.00207052 -0.0139575 -0.00620268 -6.78414e-11 -1.99496e-10 -7.77045e-10 8.21571e-10 1.4385e-10
3299 1 0.000635 -0.000973342 -0.0145941 -0.00619443 -4.51635e-11 -1.38081e-10 -9.99813e-10 8.01513e-10 6.87514e-11
3386 1 0.000635 0.000126815 -0.0139683 -0.00629647 1.21835e-11 -1.4622e-10 -1.40031e-09 6.26479e-10 1.72277e-11
3472 1 0.000635 0.00122406 -0.0145947 -0.00616255 -5.04076e-11 1.21899e-10 7.43922e-10 2.70029e-10 5.91941e-11
3559 1 0.000635 0.00232216 -0.013957 -0.0061732 1.53863e-10 -2.58936e-10 -1.50381e-09 8.46732e-11 1.54661e-10
3645 1 0.000635 0.0034124 -0.0145709 -0.00595404 3.13872e-10 -5.08217e-10 -2.96457e-09 1.41404e-11 3.73015e-11
3732 1 0.000635 0.00451333 -0.0139404 -0.00599311 2.96649e-10 -5.89459e-10 -3.37793e-09 1.34058e-11 2.39362e-11
3818 1 0.000635 0.00560634 -0.0145599 -0.00580455 1.68799e-11 2.43078e-10 9.77685e-10 7.6934e-12 1.3249e-11
3904 1 0.000635 0.00670987 -0.0139364 -0.0058794 6.52679e-11 -8.9887e-11 -6.78645e-10 4.41043e-11 2.08176e-11
2869 1 0.000635 -0.00642297 -0.0126121 -0.00577013 -5.98567e-10 -1.2957e-09 -2.86046e-09 3.3991e-10 1.99035e-12
2954 1 0.000635 -0.00531854 -0.0132384 -0.00574384 4.96238e-10 6.48784e-10 9.30298e-10 3.72405e-10 3.14798e-12
3041 1 0.000635 -0.00426604 -0.0126864 -0.00619201 -2.69245e-10 -5.13047e-10 -2.76122e-09 4.89122e-10 4.75219e-11
3127 1 0.000635 -0.00316751 -0.0133212 -0.00619481 1.59185e-10 -3.70419e-11 2.18414e-11 5.87926e-10 1.26422e-10
3214 1 0.000635 -0.0020727 -0.0127 -0.006372 -6.05846e-05 3.16542e-05 -7.12913e-07 6.90576e-10 3.52833e-11
3300 1 0.000635 -0.000973038 -0.0133348 -0.00635381 6.20159e-12 5.30528e-11 9.01418e-10 5.03408e-10 2.05321e-11
3387 1 0.000635 0.000127 -0.0127 -0.006372 -1.09666e-06 -4.22845e-05 1.94135e-06 6.90527e-11 5.5118e-12
3473 1 0.000635 0.00122655 -0.0133341 -0.00632406 -2.07024e-11 1.03402e-10 1.23801e-09 6.57263e-11 2.63355e-11
3560 1 0.000635 0.0023267 -0.0127 -0.006372 3.90943e-05 -0.000202778 4.357e-05 1.12836e-10 1.34028e-10
3646 1 0.000635 0.00342062 -0.0133219 -0.00618927 2.75133e-10 -5.19949e-10 -3.24574e-09 1.03962e-10 7.25086e-11
3733 1 0.000635 0.00452202 -0.0126912 -0.00622282 2.44345e-11 9.51842e-11 4.36977e-10 7.78048e-11 9.6667e-12
3819 1 0.000635 0.00561598 -0.0133135 -0.00604963 6.04515e-11 1.3265e-10 3.61839e-10 1.51984e-11 8.22889e-12
3905 1 0.000635 0.00671835 -0.0126856 -0.00610372 5.10476e-12 4.2729e-10 2.3826e-09 4.6311e-11 1.41661e-11
3990 1 0.000635 0.00781233 -0.0133094 -0.00593906 2.63901e-10 -3.60366e-10 -2.0385e-09 2.73346e-10 5.07999e-11
4076 1 0.000635 0.00890616 -0.0126658 -0.00590461 1.25999e-10 -1.29114e-10 -6.98121e-10 4.92507e-10 3.0631e-11
2784 1 0.000635 -0.00752609 -0.0119838 -0.00579409 5.50942e-10 1.0361e-09 2.45454e-09 3.32678e-10 1.01875e-11
2870 1 0.000635 -0.00646521 -0.0114187 -0.00620272 -4.0147e-13 -6.03505e-11 -8.55899e-11 3.91049e-10 1.43648e-11
2955 1 0.000635 -0.00536536 -0.0120523 -0.00619504 -5.32201e-11 -8.21908e-13 -2.38832e-10 4.25459e-10 1.94013e-11
3042 1 0.000635 -0.00427241 -0.01143 -0.006372 -3.60903e-06 4.04019e-05 -4.27031e-06 3.41046e-10 8.45336e-12
3128 1 0.000635 -0.00317256 -0.012065 -0.006372 -2.51416e-05 6.19995e-05 -6.37871e-06 4.34976e-10 3.06355e-11
3215 1 0.000635 -0.0020727 -0.01143 -0.006372 1.86872e-08 -6.57659e-08 -3.08134e-06 9.03425e-11 5.17148e-36
3301 1 0.000635 -0.000972852 -0.012065 -0.006372 3.68714e-08 9.97214e-07 -2.92582e-06 7.97746e-11 5.40086e-15
3388 1 0.000635 0.000127 -0.01143 -0.006372 1.63299e-09 1.69407e-21 -6.65789e-07 8.38486e-12 5.17148e-36
3474 1 0.000635 0.00122685 -0.012065 -0.006372 -2.17661e-08 -1.81798e-07 -1.9235e-06 7.22418e-11 4.07548e-17
3561 1 0.000635 0.0023267 -0.01143 -0.006372 1.60879e-08 -4.14692e-08 -3.06474e-06 9.10802e-11 5.17148e-36
3647 1 0.000635 0.00342656 -0.012065 -0.006372 2.78901e-05 -2.5358e-05 9.94737e-06 9.06117e-11 5.25257e-12
3734 1 0.000635 0.00452641 -0.01143 -0.006372 1.20062e-05 -6.35805e-06 5.10517e-06 6.5305e-11 8.92662e-13
3820 1 0.000635 0.00562312 -0.0120593 -0.00625066 9.02708e-11 -2.25752e-11 -4.88264e-10 5.73741e-11 2.80021e-12
3906 1 0.000635 0.00672394 -0.0114267 -0.00627559 1.1898e-10 -3.60135e-11 -7.77265e-10 6.42699e-11 7.62957e-12
3991 1 0.000635 0.00782005 -0.0120556 -0.00614956 1.84706e-10 -1.04277e-10 -9.55491e-10 4.03409e-10 4.45451e-11
4077 1 0.000635 0.00891708 -0.0114157 -0.00612445 3.96629e-10 -2.8861e-10 -1.95325e-09 3.85236e-10 1.18573e-11
2614 1 0.000635 -0.00973129 -0.0107278 -0.00584719 1.00234e-09 1.86778e-09 4.816e-09 3.804e-10 7.34296e-11
2699 1 0.000635 -0.00862863 -0.0113552 -0.00581866 -3.55324e-10 -5.25851e-10 -7.3025e-10 3.46561e-10 3.15209e-11
2785 1 0.000635 -0.00756534 -0.0107854 -0.00621348 9.28771e-11 2.78584e-10 1.24857e-09 3.73704e-10 2.23812e-11
2956 1 0.000635 -0.00537226 -0.010795 -0.006372 1.35925e-05 2.55987e-05 -3.20698e-06 2.99915e-10 2.68969e-12
3129 1 0.000635 -0.00317256 -0.010795 -0.006372 -1.11177e-08 -5.79291e-08 -3.12503e-06 9.28536e-11 6.46435e-36
3302 1 0.000635 -0.000972852 -0.010795 -0.006372 1.63727e-09 0 -1.60392e-07 4.86361e-13 5.17148e-36
3475 1 0.000635 0.00122685 -0.010795 -0.006372 2.657e-09 -1.69407e-21 -4.22745e-07 3.37895e-12 5.17148e-36
3648 1 0.000635 0.00342656 -0.010795 -0.006372 3.75975e-08 -2.55452e-08 -2.68126e-06 7.10744e-11 1.0343e-35
3821 1 0.000635 0.00562626 -0.010795 -0.006372 7.09712e-06 -1.15554e-05 4.21626e-06 4.61971e-11 5.70789e-13
3992 1 0.000635 0.00782462 -0.0107935 -0.00630038 1.74384e-10 -1.28853e-10 -1.2935e-09 2.38485e-10 2.97492e-11
4163 1 0.000635 0.00998902 -0.0107579 -0.00594969 3.14915e-10 -1.70885e-10 -1.2118e-09 4.25621e-10 3.50547e-11
2445 1 0.000635 -0.0119407 -0.00948531 -0.00593429 -9.16394e-11 -2.62561e-10 -1.95427e-10 6.05144e-10 1.4686e-10
2529 1 0.000635 -0.0108352 -0.0101043 -0.00588557 1.43583e-10 1.77973e-10 7.77916e-10 4.35638e-10 1.25688e-10
2615 1 0.000635 -0.00976564 -0.00951856 -0.00623633 4.02883e-11 1.29304e-10 2.30344e-10 3.99747e-10 5.9995e-11
2700 1 0.000635 -0.00866554 -0.0101521 -0.00622566 6.02043e-11 -1.41313e-11 7.2967e-11 3.71271e-10 4.00293e-11
2786 1 0.000635 -0.00757197 -0.009525 -0.006372 4.32617e-05 8.0296e-06 -2.77072e-06 2.60292e-10 1.27446e-11
2871 1 0.000635 -0.00647211 -0.01016 -0.006372 2.89616e-05 1.56935e-05 -2.84825e-06 2.77535e-10 5.2019e-12
2957 1 0.000635 -0.00537226 -0.009525 -0.006372 -3.86294e-08 -3.85097e-08 -2.9598e-06 8.35051e-11 3.74932e-35
3043 1 0.000635 -0.00427241 -0.01016 -0.006372 -2.81163e-08 -4.86727e-08 -3.08169e-06 9.0372e-11 2.71503e-35
3130 1 0.000635 -0.00317256 -0.009525 -0.006372 2.0671e-17 0 2.16e-11 1.05285e-24 6.46435e-36
3216 1 0.000635 -0.0020727 -0.01016 -0.006372 -6.77626e-21 0 2.16e-11 0 5.17148e-36
3303 1 0.000635 -0.000972852 -0.009525 -0.006372 0 0 2.16e-11 0 5.17148e-36
3389 1 0.000635 0.000127 -0.01016 -0.006372 0 0 2.16e-11 0 5.17148e-36
3476 1 0.000635 0.00122685 -0.009525 -0.006372 0 0 2.16e-11 0 5.17148e-36
3562 1 0.000635 0.0023267 -0.01016 -0.006372 0 0 2.16e-11 0 5.17148e-36
3649 1 0.000635 0.00342656 -0.009525 -0.006372 4.13115e-17 0 2.16e-11 0 1.0343e-35
3735 1 0.000635 0.00452641 -0.01016 -0.006372 3.102e-08 -1.33594e-08 -2.16589e-06 4.654e-11 3.10289e-35
3822 1 0.000635 0.00562626 -0.009525 -0.006372 2.48162e-08 -4.99908e-09 -1.70165e-06 2.9248e-11 3.74932e-35
3907 1 0.000635 0.00672611 -0.01016 -0.006372 4.35202e-06 -2.41412e-05 3.29919e-06 4.59322e-11 2.24429e-12
3993 1 0.000635 0.00782597 -0.009525 -0.006372 -4.97707e-06 -2.4121e-05 7.60454e-07 1.32131e-10 3.45261e-12
4078 1 0.000635 0.0089245 -0.0101572 -0.00629318 6.13153e-11 -1.10233e-11 -1.82796e-10 4.07735e-10 2.08394e-11
4164 1 0.000635 0.0100177 -0.00951498 -0.00620621 1.92023e-10 -1.11973e-10 -1.02038e-09 4.11772e-10 4.42414e-11
2277 1 0.000635 -0.0141543 -0.00825042 -0.00602932 2.06835e-11 -2.2726e-10 -6.71904e-10 9.06761e-10 5.34932e-11
2361 1 0.000635 -0.013047 -0.00886736 -0.00598086 9.67811e-11 1.71397e-10 2.98733e-10 1.16393e-09 1.00222e-10
2446 1 0.000635 -0.011967 -0.00825274 -0.0062411 1.44267e-10 8.60478e-11 1.10257e-09 6.02051e-10 8.67301e-12
2530 1 0.000635 -0.0108661 -0.0088857 -0.00624438 2.16689e-11 4.21844e-11 5.25851e-10 5.28828e-10 2.75328e-11
2616 1 0.000635 -0.00977167 -0.008255 -0.006372 1.76885e-05 -3.22313e-05 3.49303e-06 2.03136e-10 1.2499e-11
2701 1 0.000635 -0.00867182 -0.00889 -0.006372 5.51065e-05 1.89835e-07 -2.68262e-06 2.37361e-10 2.30392e-11
2787 1 0.000635 -0.00757197 -0.008255 -0.006372 -4.7142e-08 -1.95618e-08 -2.59536e-06 6.43232e-11 4.0079e-35
2872 1 0.000635 -0.00647211 -0.00889 -0.006372 -4.45025e-08 -2.83161e-08 -2.78454e-06 7.40325e-11 3.74932e-35
2958 1 0.000635 -0.00537226 -0.008255 -0.006372 1.44607e-16 -7.15799e-17 2.16e-11 5.26426e-25 4.0079e-35
3044 1 0.000635 -0.00427241 -0.00889 -0.006372 -1.03289e-16 -4.76841e-17 2.16e-11 1.05285e-24 2.71503e-35
3131 1 0.000635 -0.00317256 -0.008255 -0.006372 3.09912e-17 -7.75431e-17 2.16e-11 5.26426e-25 1.87466e-35
3217 1 0.000635 -0.0020727 -0.00889 -0.006372 -3.38813e-21 -4.76866e-17 2.16e-11 0 5.17148e-36
3304 1 0.000635 -0.000972852 -0.008255 -0.006372 0 -7.15833e-17 2.16e-11 0 1.0343e-35
3390 1 0.000635 0.000127 -0.00889 -0.006372 0 -4.76866e-17 2.16e-11 0 5.17148e-36
3477 1 0.000635 0.00122685 -0.008255 -0.006372 0 -7.15833e-17 2.16e-11 0 1.0343e-35
3563 1 0.000635 0.0023267 -0.00889 -0.006372 0 -4.76858e-17 2.16e-11 0 5.17148e-36
3650 1 0.000635 0.00342656 -0.008255 -0.006372 4.13098e-17 -7.15825e-17 2.16e-11 0 1.0343e-35
3736 1 0.000635 0.00452641 -0.00889 -0.006372 4.13115e-17 -4.76841e-17 2.16e-11 0 3.10289e-35
3823 1 0.000635 0.00562626 -0.008255 -0.006372 -1.446e-16 -7.15791e-17 2.16e-11 0 4.0079e-35
3908 1 0.000635 0.00672611 -0.00889 -0.006372 1.12682e-08 -1.36116e-08 -1.5452e-06 2.28279e-11 1.68073e-35
3994 1 0.000635 0.00782597 -0.008255 -0.006372 -8.92639e-09 -3.59658e-08 -2.09472e-06 4.8216e-11 1.0343e-35
4079 1 0.000635 0.00892582 -0.00889 -0.006372 -4.7381e-05 4.74764e-05 -9.00601e-06 2.79266e-10 1.58336e-11
4165 1 0.000635 0.0100257 -0.008255 -0.006372 0.000125534 1.40693e-06 2.87388e-05 3.81359e-10 7.97863e-11
4250 1 0.000635 0.0110863 -0.00885668 -0.00601541 1.44003e-10 -9.72238e-11 -5.17246e-10 4.41859e-10 3.5609e-11
4335 1 0.000635 0.0121426 -0.00818976 -0.00578873 -1.90883e-09 1.29768e-09 4.20241e-09 4.0149e-10 1.69322e-11
2194 1 0.000635 -0.0152316 -0.00761605 -0.00580872 2.92008e-10 -1.94799e-10 5.89806e-10 5.12562e-10 7.64122e-11
2278 1 0.000635 -0.0141544 -0.00698142 -0.00604138 5.6367e-10 -2.27556e-10 2.06534e-09 7.89571e-10 8.08307e-11
2362 1 0.000635 -0.0130669 -0.00761786 -0.0062053 -2.45742e-10 -2.8926e-10 -3.11127e-09 6.03924e-10 2.03926e-11
2447 1 0.000635 -0.0119706 -0.00698475 -0.00631239 9.6352e-11 1.56767e-11 1.51027e-09 1.28123e-10 9.38483e-12
2531 1 0.000635 -0.0108714 -0.00762002 -0.00635178 4.39854e-11 2.12524e-11 3.31232e-10 1.61951e-10 1.6932e-12
2617 1 0.000635 -0.00977167 -0.006985 -0.006372 -4.31163e-06 -2.46011e-06 -1.85877e-06 4.15091e-11 1.09493e-13
2702 1 0.000635 -0.00867182 -0.00762 -0.006372 -5.0932e-08 -7.60645e-09 -2.41595e-06 5.56321e-11 2.9736e-35
2788 1 0.000635 -0.00757197 -0.006985 -0.006372 1.44605e-16 -2.38958e-17 2.16e-11 0 4.0079e-35
2873 1 0.000635 -0.00647211 -0.00762 -0.006372 -1.44609e-16 2.38967e-17 2.16e-11 0 4.0079e-35
2959 1 0.000635 -0.00537226 -0.006985 -0.006372 1.44605e-16 -2.38958e-17 2.16e-11 0 4.0079e-35
3045 1 0.000635 -0.00427241 -0.00762 -0.006372 -1.13623e-16 2.98573e-17 2.16e-11 0 2.90896e-35
3132 1 0.000635 -0.00317256 -0.006985 -0.006372 3.09912e-17 -2.98573e-17 2.16e-11 0 1.87466e-35
3218 1 0.000635 -0.0020727 -0.00762 -0.006372 -1.69407e-21 2.38958e-17 2.16e-11 0 1.0343e-35
3305 1 0.000635 -0.000972852 -0.006985 -0.006372 0 -2.38967e-17 2.16e-11 0 1.0343e-35
3391 1 0.000635 0.000127 -0.00762 -0.006372 0 2.38967e-17 2.16e-11 0 1.0343e-35
3478 1 0.000635 0.00122685 -0.006985 -0.006372 0 -2.38967e-17 2.16e-11 0 1.0343e-35
3564 1 0.000635 0.0023267 -0.00762 -0.006372 0 2.38967e-17 2.16e-11 0 1.0343e-35
3651 1 0.000635 0.00342656 -0.006985 -0.006372 4.13081e-17 -2.38967e-17 2.16e-11 0 1.0343e-35
3737 1 0.000635 0.00452641 -0.00762 -0.006372 4.13217e-17 2.38958e-17 2.16e-11 0 2.06859e-35
3824 1 0.000635 0.00562626 -0.006985 -0.006372 -1.44599e-16 -2.3895e-17 2.16e-11 0 4.0079e-35
3909 1 0.000635 0.00672611 -0.00762 -0.006372 6.19757e-17 2.38958e-17 2.16e-11 0 2.9736e-35
3995 1 0.000635 0.00782597 -0.006985 -0.006372 -6.77626e-21 -2.38967e-17 2.16e-11 0 1.0343e-35
4080 1 0.000635 0.00892582 -0.00762 -0.006372 -2.91002e-08 -7.0597e-08 -3.83905e-06 1.99879e-10 1.0343e-35
4166 1 0.000635 0.0100257 -0.006985 -0.006372 -4.05192e-05 2.32753e-05 -7.11705e-06 3.11417e-10 1.00868e-11
4251 1 0.000635 0.0111228 -0.00761694 -0.00628389 5.87199e-11 -8.11733e-11 -1.12423e-09 4.4785e-10 1.10094e-10
4336 1 0.000635 0.0122072 -0.00697024 -0.00613649 -1.61395e-10 5.47033e-11 5.27051e-10 4.89528e-10 5.0102e-11
2195 1 0.000635 -0.0152211 -0.00634706 -0.00577111 9.17562e-10 -2.50835e-10 3.23972e-09 7.07695e-11 3.73794e-11
2279 1 0.000635 -0.0141435 -0.00571261 -0.00599836 -5.67427e-10 -8.66592e-12 -2.98824e-09 3.49907e-11 3.85647e-11
2363 1 0.000635 -0.0130653 -0.00634846 -0.00621179 -4.23159e-11 -9.51469e-11 -4.26264e-10 1.23545e-10 3.2811e-11
2448 1 0.000635 -0.0119709 -0.00571509 -0.00633804 5.68069e-11 -2.10659e-11 5.41774e-10 5.57853e-11 1.71874e-11
2532 1 0.000635 -0.0108715 -0.00635 -0.006372 -2.88658e-05 -2.56399e-05 1.6239e-06 3.72889e-11 5.2169e-12
2618 1 0.000635 -0.00977167 -0.005715 -0.006372 -8.11265e-10 1.40515e-09 -5.25492e-07 5.22177e-12 6.85221e-35
2703 1 0.000635 -0.00867182 -0.00635 -0.006372 -2.74973e-10 4.76267e-10 -1.78284e-07 6.00853e-13 2.9736e-35
2789 1 0.000635 -0.00757197 -0.005715 -0.006372 1.44602e-16 4.76832e-17 2.16e-11 0 3.74932e-35
2874 1 0.000635 -0.00647211 -0.00635 -0.006372 -1.44609e-16 7.15816e-17 2.16e-11 0 4.0079e-35
2960 1 0.000635 -0.00537226 -0.005715 -0.006372 1.44604e-16 4.76841e-17 2.16e-11 5.26426e-25 3.74932e-35
3046 1 0.000635 -0.00427241 -0.00635 -0.006372 -1.13621e-16 7.75431e-17 2.16e-11 0 2.90896e-35
3133 1 0.000635 -0.00317256 -0.005715 -0.006372 2.0671e-17 4.76858e-17 2.16e-11 5.26426e-25 6.46435e-36
3219 1 0.000635 -0.0020727 -0.00635 -0.006372 -5.0822e-21 7.15842e-17 2.16e-11 0 1.0343e-35
3306 1 0.000635 -0.000972852 -0.005715 -0.006372 0 4.76866e-17 2.16e-11 0 5.17148e-36
3392 1 0.000635 0.000127 -0.00635 -0.006372 0 7.1585e-17 2.16e-11 0 1.0343e-35
3479 1 0.000635 0.00122685 -0.005715 -0.006372 0 4.76866e-17 2.16e-11 0 5.17148e-36
3565 1 0.000635 0.0023267 -0.00635 -0.006372 0 7.15842e-17 2.16e-11 0 1.0343e-35
3652 1 0.000635 0.00342656 -0.005715 -0.006372 4.13098e-17 4.76858e-17 2.16e-11 0 1.0343e-35
3738 1 0.000635 0.00452641 -0.00635 -0.006372 4.13183e-17 7.15816e-17 2.16e-11 0 2.06859e-35
3825 1 0.000635 0.00562626 -0.005715 -0.006372 -1.44597e-16 4.76841e-17 2.16e-11 0 3.74932e-35
3910 1 0.000635 0.00672611 -0.00635 -0.006372 6.19774e-17 7.15825e-17 2.16e-11 0 2.9736e-35
3996 1 0.000635 0.00782597 -0.005715 -0.006372 -6.77626e-21 4.76849e-17 2.16e-11 0 5.17148e-36
4081 1 0.000635 0.00892582 -0.00635 -0.006372 -5.58947e-09 -9.68124e-09 -7.77613e-07 1.14439e-11 1.0343e-35
4167 1 0.000635 0.0100257 -0.005715 -0.006372 -1.62497e-08 -2.81454e-08 -2.07878e-06 8.24008e-11 6.85221e-35
4252 1 0.000635 0.0111255 -0.00635 -0.006372 -8.66009e-05 7.55903e-06 -1.16648e-05 4.15764e-10 2.41446e-11
4337 1 0.000635 0.0122241 -0.00571533 -0.00633732 -2.28954e-11 -1.95764e-12 1.43842e-10 5.2017e-10 4.32111e-11
4421 1 0.000635 0.013265 -0.00630436 -0.00591204 -3.89752e-10 1.3863e-10 1.16656e-09 8.25893e-10 2.28867e-11
2364 1 0.000635 -0.0130609 -0.00507866 -0.00620283 2.1063e-10 -6.95505e-11 1.09141e-09 7.94716e-11 6.86377e-11
2533 1 0.000635 -0.0108715 -0.00508 -0.006372 -5.33395e-06 -3.11793e-06 -1.86995e-06 6.60266e-11 1.69394e-13
2704 1 0.000635 -0.00867182 -0.00508 -0.006372 -6.19774e-17 -2.3845e-17 2.16e-11 0 1.42216e-35
2875 1 0.000635 -0.00647211 -0.00508 -0.006372 -1.44605e-16 -2.38442e-17 2.16e-11 0 3.49075e-35
3047 1 0.000635 -0.00427241 -0.00508 -0.006372 -1.03287e-16 -2.38433e-17 2.16e-11 1.57928e-24 2.45645e-35
3220 1 0.000635 -0.0020727 -0.00508 -0.006372 -3.38813e-21 -2.38442e-17 2.16e-11 0 2.58574e-36
3393 1 0.000635 0.000127 -0.00508 -0.006372 0 -2.38442e-17 2.16e-11 0 2.58574e-36
3566 1 0.000635 0.0023267 -0.00508 -0.006372 -3.38813e-21 -2.38459e-17 2.16e-11 0 2.58574e-36
3739 1 0.000635 0.00452641 -0.00508 -0.006372 4.13081e-17 -2.38433e-17 2.16e-11 5.26426e-25 2.84431e-35
3911 1 0.000635 0.00672611 -0.00508 -0.006372 6.19859e-17 -2.38442e-17 2.16e-11 0 1.42216e-35
4082 1 0.000635 0.00892582 -0.00508 -0.006372 -8.47033e-21 -2.3845e-17 2.16e-11 0 2.58574e-36
4253 1 0.000635 0.0111255 -0.00508 -0.006372 -2.05353e-05 1.17445e-05 -5.13662e-06 2.59684e-10 2.57327e-12
4422 1 0.000635 0.0133181 -0.00507852 -0.00624148 -1.39997e-10 4.35581e-11 9.69292e-10 6.36421e-10 1.68054e-11
2280 1 0.000635 -0.014134 -0.00444368 -0.00596192 1.31828e-10 -6.99996e-11 3.62668e-10 2.2414e-11 1.91705e-11
2365 1 0.000635 -0.0130559 -0.0038095 -0.00618598 -6.33089e-10 3.78558e-12 -3.35059e-09 1.11544e-10 2.24245e-11
2449 1 0.000635 -0.0119714 -0.004445 -0.006372 -0.000112139 -5.65686e-05 2.48957e-05 1.02062e-10 4.98617e-11
2534 1 0.000635 -0.0108715 -0.00381 -0.006372 -5.25566e-08 -2.98055e-08 -3.12163e-06 9.28394e-11 4.65433e-35
2619 1 0.000635 -0.00977167 -0.004445 -0.006372 -1.3571e-09 2.35057e-09 -2.99453e-07 1.69527e-12 6.01185e-35
2705 1 0.000635 -0.00867182 -0.00381 -0.006372 -8.2623e-17 0 2.16e-11 1.05285e-24 2.06859e-35
2790 1 0.000635 -0.00757197 -0.004445 -0.006372 1.44602e-16 -5.96282e-17 2.16e-11 5.26426e-25 3.74932e-35
2876 1 0.000635 -0.00647211 -0.00381 -0.006372 -1.44605e-16 0 2.16e-11 0 3.23218e-35
2961 1 0.000635 -0.00537226 -0.004445 -0.006372 1.44604e-16 -5.9629e-17 2.16e-11 5.26426e-25 3.74932e-35
3048 1 0.000635 -0.00427241 -0.00381 -0.006372 -1.03291e-16 0 2.16e-11 0 1.68073e-35
3134 1 0.000635 -0.00317256 -0.004445 -0.006372 3.09963e-17 -5.36693e-17 2.16e-11 1.57928e-24 8.40366e-36
3221 1 0.000635 -0.0020727 -0.00381 -0.006372 -6.77626e-21 0 2.16e-11 2.10571e-24 0
3307 1 0.000635 -0.000972852 -0.004445 -0.006372 0 -4.77053e-17 2.16e-11 1.05285e-24 5.17148e-36
3394 1 0.000635 0.000127 -0.00381 -0.006372 0 0 2.16e-11 1.05285e-24 0
3480 1 0.000635 0.00122685 -0.004445 -0.006372 0 -4.77053e-17 2.16e-11 1.05285e-24 5.17148e-36
3567 1 0.000635 0.0023267 -0.00381 -0.006372 0 0 2.16e-11 2.10571e-24 0
3653 1 0.000635 0.00342656 -0.004445 -0.006372 3.09811e-17 -5.36701e-17 2.16e-11 1.05285e-24 8.40366e-36
3740 1 0.000635 0.00452641 -0.00381 -0.006372 4.13217e-17 7.70372e-34 2.16e-11 0 1.29287e-35
3826 1 0.000635 0.00562626 -0.004445 -0.006372 -1.44597e-16 -5.9629e-17 2.16e-11 5.26426e-25 3.74932e-35
3912 1 0.000635 0.00672611 -0.00381 -0.006372 8.26298e-17 0 2.16e-11 1.05285e-24 2.06859e-35
3997 1 0.000635 0.00782597 -0.004445 -0.006372 -3.38813e-21 -4.77061e-17 2.16e-11 1.05285e-24 5.17148e-36
4083 1 0.000635 0.00892582 -0.00381 -0.006372 -6.77626e-21 0 2.16e-11 1.05285e-24 0
4168 1 0.000635 0.0100257 -0.004445 -0.006372 3.9821e-09 6.89719e-09 -3.05941e-07 1.7706e-12 6.01185e-35
4254 1 0.000635 0.0111255 -0.00381 -0.006372 2.39406e-08 -6.58898e-09 -2.16742e-06 4.46901e-11 4.65433e-35
4338 1 0.000635 0.0122254 -0.004445 -0.006372 4.8549e-05 -5.96991e-06 3.14386e-06 5.23857e-10 2.95017e-11
4423 1 0.000635 0.0133218 -0.0038091 -0.00627455 4.41163e-11 1.41515e-11 -5.08674e-10 3.36492e-10 5.0952e-11
4507 1 0.000635 0.0144068 -0.00444264 -0.00608887 -2.67793e-10 8.08806e-11 1.28984e-09 5.51866e-10 1.29985e-11
4591 1 0.000635 0.0154881 -0.00380811 -0.00588457 -7.33354e-11 9.36365e-12 2.43937e-10 3.45829e-10 2.39878e-11
2281 1 0.000635 -0.0141287 -0.00317433 -0.00594266 -5.85388e-10 -3.46902e-11 -2.74464e-09 1.26381e-11 9.08932e-12
2366 1 0.000635 -0.0130558 -0.00253976 -0.00618694 -2.90747e-11 6.51285e-12 -1.31641e-10 1.14039e-10 4.63047e-12
2450 1 0.000635 -0.0119714 -0.003175 -0.006372 -2.5969e-05 4.05103e-06 9.83261e-06 1.11596e-10 2.31532e-12
2535 1 0.000635 -0.0108715 -0.00254 -0.006372 -6.54328e-08 -3.11324e-09 -3.25321e-06 1.00706e-10 6.33506e-35
2620 1 0.000635 -0.00977167 -0.003175 -0.006372 -1.3427e-16 4.1748e-17 2.16e-11 5.26426e-25 5.81792e-35
2706 1 0.000635 -0.00867182 -0.00254 -0.006372 -7.2301e-17 -5.97417e-18 2.16e-11 0 1.61609e-35
2791 1 0.000635 -0.00757197 -0.003175 -0.006372 1.44602e-16 4.77053e-17 2.16e-11 5.26426e-25 3.55539e-35
2877 1 0.000635 -0.00647211 -0.00254 -0.006372 -1.44605e-16 -1.19365e-17 2.16e-11 0 3.23218e-35
2962 1 0.000635 -0.00537226 -0.003175 -0.006372 1.44604e-16 4.7707e-17 2.16e-11 0 3.55539e-35
3049 1 0.000635 -0.00427241 -0.00254 -0.006372 -1.03284e-16 -1.19373e-17 2.16e-11 5.26426e-25 1.93931e-35
3135 1 0.000635 -0.00317256 -0.003175 -0.006372 3.09963e-17 4.17472e-17 2.16e-11 1.05285e-24 6.46435e-36
3222 1 0.000635 -0.0020727 -0.00254 -0.006372 0 -1.43996e-20 2.16e-11 0 0
3308 1 0.000635 -0.000972852 -0.003175 -0.006372 0 3.57823e-17 2.16e-11 1.05285e-24 3.23218e-36
3395 1 0.000635 0.000127 -0.00254 -0.006372 0 -1.35525e-20 2.16e-11 0 0
3481 1 0.000635 0.00122685 -0.003175 -0.006372 0 3.57823e-17 2.16e-11 1.05285e-24 3.23218e-36
3568 1 0.000635 0.0023267 -0.00254 -0.006372 -6.77626e-21 -1.35525e-20 2.16e-11 0 0
3654 1 0.000635 0.00342656 -0.003175 -0.006372 3.09777e-17 4.17463e-17 2.16e-11 1.05285e-24 6.46435e-36
3741 1 0.000635 0.00452641 -0.00254 -0.006372 4.13115e-17 -1.19382e-17 2.16e-11 5.26426e-25 1.93931e-35
3827 1 0.000635 0.00562626 -0.003175 -0.006372 -1.44595e-16 4.77053e-17 2.16e-11 5.26426e-25 3.55539e-35
3913 1 0.000635 0.00672611 -0.00254 -0.006372 7.23095e-17 -5.97502e-18 2.16e-11 0 1.61609e-35
3998 1 0.000635 0.00782597 -0.003175 -0.006372 0 3.57823e-17 2.16e-11 1.05285e-24 3.23218e-36
4084 1 0.000635 0.00892582 -0.00254 -0.006372 -8.47033e-21 -1.27055e-20 2.16e-11 0 0
4169 1 0.000635 0.0100257 -0.003175 -0.006372 1.3427e-16 4.1748e-17 2.16e-11 5.26426e-25 5.81792e-35
4255 1 0.000635 0.0111255 -0.00254 -0.006372 1.99893e-08 -2.0266e-08 -1.96018e-06 3.69546e-11 6.33506e-35
4339 1 0.000635 0.0122254 -0.003175 -0.006372 4.58577e-05 9.81467e-06 6.71894e-06 5.23841e-11 7.31199e-12
4424 1 0.000635 0.0133197 -0.00253957 -0.00625672 -2.91183e-10 -4.27087e-11 2.06221e-09 6.25025e-11 1.48465e-11
4508 1 0.000635 0.0144109 -0.00317361 -0.00611213 1.95362e-10 3.45748e-11 -1.31838e-09 4.36041e-10 6.18264e-11
4592 1 0.000635 0.0154909 -0.0025389 -0.00589625 -1.06811e-09 1.93041e-11 4.83065e-09 1.48797e-10 4.10043e-11
2282 1 0.000635 -0.0141278 -0.00190466 -0.00594007 -1.05332e-09 -1.3069e-11 -4.44631e-09 1.43958e-11 4.83568e-12
2367 1 0.000635 -0.0130562 -0.0012699 -0.00618908 -9.44929e-11 -3.93666e-12 -4.3164e-10 1.13518e-10 2.88378e-12
2451 1 0.000635 -0.0119714 -0.001905 -0.006372 -1.71021e-05 4.02346e-06 8.30593e-06 1.1206e-10 1.09603e-12
2536 1 0.000635 -0.0108715 -0.00127 -0.006372 -6.60189e-08 1.20071e-10 -3.23872e-06 9.98088e-11 6.33506e-35
2621 1 0.000635 -0.00977167 -0.001905 -0.006372 -1.44592e-16 -1.19229e-17 2.16e-11 5.26426e-25 6.39971e-35
2707 1 0.000635 -0.00867182 -0.00127 -0.006372 -7.2301e-17 5.96909e-18 2.16e-11 5.26426e-25 1.61609e-35
2792 1 0.000635 -0.00757197 -0.001905 -0.006372 1.44605e-16 -1.19229e-17 2.16e-11 0 3.29682e-35
2878 1 0.000635 -0.00647211 -0.00127 -0.006372 -1.44605e-16 1.19331e-17 2.16e-11 0 3.23218e-35
2963 1 0.000635 -0.00537226 -0.001905 -0.006372 1.44602e-16 -1.19246e-17 2.16e-11 0 3.29682e-35
3050 1 0.000635 -0.00427241 -0.00127 -0.006372 -1.13613e-16 5.96993e-18 2.16e-11 0 2.13324e-35
3136 1 0.000635 -0.00317256 -0.001905 -0.006372 4.13081e-17 -1.19229e-17 2.16e-11 0 5.81792e-36
3223 1 0.000635 -0.0020727 -0.00127 -0.006372 0 7.6233e-21 2.16e-11 0 0
3309 1 0.000635 -0.000972852 -0.001905 -0.006372 0 -1.19229e-17 2.16e-11 0 6.46435e-37
3396 1 0.000635 0.000127 -0.00127 -0.006372 0 6.77626e-21 2.16e-11 0 0
3482 1 0.000635 0.00122685 -0.001905 -0.006372 0 -1.19229e-17 2.16e-11 0 6.46435e-37
3569 1 0.000635 0.0023267 -0.00127 -0.006372 -6.77626e-21 6.77626e-21 2.16e-11 0 0
3655 1 0.000635 0.00342656 -0.001905 -0.006372 2.06608e-17 -1.19229e-17 2.16e-11 0 1.93931e-36
3742 1 0.000635 0.00452641 -0.00127 -0.006372 4.13149e-17 1.19331e-17 2.16e-11 5.26426e-25 1.93931e-35
3828 1 0.000635 0.00562626 -0.001905 -0.006372 -1.44599e-16 -1.19229e-17 2.16e-11 0 3.29682e-35
3914 1 0.000635 0.00672611 -0.00127 -0.006372 7.23078e-17 5.96909e-18 2.16e-11 5.26426e-25 1.61609e-35
3999 1 0.000635 0.00782597 -0.001905 -0.006372 -6.77626e-21 -1.19229e-17 2.16e-11 5.26426e-25 6.46435e-37
4085 1 0.000635 0.00892582 -0.00127 -0.006372 -6.77626e-21 6.77626e-21 2.16e-11 0 0
4170 1 0.000635 0.0100257 -0.001905 -0.006372 1.44599e-16 -1.19229e-17 2.16e-11 0 6.39971e-35
4256 1 0.000635 0.0111255 -0.00127 -0.006372 2.64608e-08 -9.26029e-09 -2.13551e-06 4.33181e-11 6.33506e-35
4340 1 0.000635 0.0122254 -0.001905 -0.006372 2.30315e-05 9.71257e-07 6.00742e-06 4.88293e-11 1.65507e-12
4425 1 0.000635 0.0133183 -0.00126983 -0.00624714 1.43112e-10 2.64704e-12 -1.50374e-09 5.53184e-11 3.08449e-12
4509 1 0.000635 0.014406 -0.00190444 -0.00608109 -6.65801e-10 -1.04022e-11 3.38218e-09 2.32885e-11 1.21914e-11
4593 1 0.000635 0.0154855 -0.00126963 -0.00586743 -1.32659e-10 6.8081e-11 3.15141e-10 1.13095e-11 8.39204e-12
2283 1 0.000635 -0.0141279 -0.000634894 -0.00594083 1.39357e-10 -9.8057e-12 6.40263e-10 1.50442e-11 3.94603e-12
2368 1 0.000635 -0.0130563 -3.79941e-16 -0.00618978 4.10596e-10 5.45215e-14 2.08403e-09 1.13378e-10 2.63702e-12
2452 1 0.000635 -0.0119714 -0.000635 -0.006372 -1.67665e-05 1.33438e-06 8.10605e-06 1.12111e-10 9.26595e-13
2622 1 0.000635 -0.00977167 -0.000635 -0.006372 -1.44599e-16 -8.47033e-21 2.16e-11 0 6.33506e-35
2793 1 0.000635 -0.00757197 -0.000635 -0.006372 1.44604e-16 -1.19339e-17 2.16e-11 5.26426e-25 3.23218e-35
2964 1 0.000635 -0.00537226 -0.000635 -0.006372 1.44604e-16 -1.19365e-17 2.16e-11 0 3.23218e-35
3137 1 0.000635 -0.00317256 -0.000635 -0.006372 4.13183e-17 -8.47033e-21 2.16e-11 0 5.17148e-36
3310 1 0.000635 -0.000972852 -0.000635 -0.006372 0 -8.47033e-21 2.16e-11 0 0
3483 1 0.000635 0.00122685 -0.000635 -0.006372 0 -8.47033e-21 2.16e-11 0 0
3656 1 0.000635 0.00342656 -0.000635 -0.006372 3.09811e-17 -5.97078e-18 2.16e-11 5.26426e-25 3.23218e-36
3829 1 0.000635 0.00562626 -0.000635 -0.006372 -1.44597e-16 -1.19339e-17 2.16e-11 5.26426e-25 3.23218e-35
4000 1 0.000635 0.00782597 -0.000635 -0.006372 0 -8.47033e-21 2.16e-11 0 0
4171 1 0.000635 0.0100257 -0.000635 -0.006372 1.44599e-16 -8.47033e-21 2.16e-11 0 6.33506e-35
4341 1 0.000635 0.0122254 -0.000635 -0.006372 9.75814e-06 4.33124e-07 4.73329e-06 5.35774e-11 3.03281e-13
4426 1 0.000635 0.013318 -7.60274e-16 -0.00624511 -5.60057e-11 7.03615e-14 1.2738e-11 5.71408e-11 1.43936e-12
4510 1 0.000635 0.0144032 -0.000634861 -0.00606454 -2.40597e-10 -1.83676e-12 7.855e-10 1.27349e-11 3.73503e-12
4594 1 0.000635 0.0154832 -2.91006e-15 -0.00585523 -7.31312e-10 -1.80821e-13 3.12439e-09 5.44869e-12 4.00527e-12
2284 1 0.000635 -0.0141279 0.000634894 -0.00594083 1.39388e-10 9.6917e-12 6.40259e-10 1.50442e-11 3.94603e-12
2453 1 0.000635 -0.0119714 0.000635 -0.006372 -1.67665e-05 -1.33438e-06 8.10605e-06 1.12111e-10 9.26595e-13
2537 1 0.000635 -0.0108715 0 -0.006372 -6.569e-08 9.98228e-18 -3.22608e-06 9.9021e-11 6.33506e-35
2623 1 0.000635 -0.00977167 0.000635 -0.006372 -1.44599e-16 -3.38813e-21 2.16e-11 0 6.33506e-35
2708 1 0.000635 -0.00867182 0 -0.006372 -8.26247e-17 5.92923e-21 2.16e-11 0 2.06859e-35
2794 1 0.000635 -0.00757197 0.000635 -0.006372 1.44602e-16 -3.38813e-21 2.16e-11 0 3.23218e-35
2879 1 0.000635 -0.00647211 0 -0.006372 -1.44605e-16 5.0822e-21 2.16e-11 0 3.23218e-35
2965 1 0.000635 -0.00537226 0.000635 -0.006372 1.44602e-16 -3.38813e-21 2.16e-11 0 3.23218e-35
3051 1 0.000635 -0.00427241 0 -0.006372 -1.03282e-16 5.92923e-21 2.16e-11 0 1.68073e-35
3138 1 0.000635 -0.00317256 0.000635 -0.006372 4.13149e-17 -3.38813e-21 2.16e-11 0 5.17148e-36
3224 1 0.000635 -0.0020727 0 -0.006372 0 6.77626e-21 2.16e-11 0 0
3311 1 0.000635 -0.000972852 0.000635 -0.006372 0 -3.38813e-21 2.16e-11 0 0
3397 1 0.000635 0.000127 0 -0.006372 0 6.77626e-21 2.16e-11 0 0
3484 1 0.000635 0.00122685 0.000635 -0.006372 0 -3.38813e-21 2.16e-11 0 0
3570 1 0.000635 0.0023267 0 -0.006372 -3.38813e-21 5.0822e-21 2.16e-11 5.26426e-25 0
3657 1 0.000635 0.00342656 0.000635 -0.006372 2.06574e-17 -3.38813e-21 2.16e-11 0 1.29287e-36
3743 1 0.000635 0.00452641 0 -0.006372 4.13132e-17 5.92923e-21 2.16e-11 0 1.29287e-35
3830 1 0.000635 0.00562626 0.000635 -0.006372 -1.44595e-16 -3.38813e-21 2.16e-11 0 3.23218e-35
3915 1 0.000635 0.00672611 0 -0.006372 8.26315e-17 5.92923e-21 2.16e-11 0 2.06859e-35
4001 1 0.000635 0.00782597 0.000635 -0.006372 0 -3.38813e-21 2.16e-11 0 0
4086 1 0.000635 0.00892582 0 -0.006372 -6.77626e-21 6.77626e-21 2.16e-11 0 0
4172 1 0.000635 0.0100257 0.000635 -0.006372 1.44599e-16 -3.38813e-21 2.16e-11 0 6.33506e-35
4257 1 0.000635 0.0111255 0 -0.006372 2.91676e-08 -2.03906e-17 -2.20216e-06 4.59665e-11 6.33506e-35
4342 1 0.000635 0.0122254 0.000635 -0.006372 9.75814e-06 -4.33124e-07 4.73329e-06 5.35774e-11 3.03281e-13
4511 1 0.000635 0.0144032 0.000634861 -0.00606454 -2.40734e-10 1.8855e-12 7.85485e-10 1.27349e-11 3.73503e-12