ITEM: TIMESTEP
1640000
ITEM: NUMBER OF ATOMS
6793
ITEM: BOX BOUNDS ff ff ff
-8.9999999999999997e-02 8.9999999999999997e-02
-8.9999999999999997e-02 8.9999999999999997e-02
-4.0000000000000001e-02 4.0000000000000001e-02
ITEM: ATOMS id type radius x y z fx fy fz c_bendingE c_stretchingE
3385 1 0.000635 0.000116838 -0.0151862 -0.0172328 5.03081e-09 -4.9969e-09 -4.88851e-09 3.15703e-09 7.15859e-11
3213 1 0.000635 -0.0020719 -0.0139548 -0.0175257 2.18083e-09 7.48634e-10 4.20166e-09 5.20566e-09 3.60922e-10
3299 1 0.000635 -0.000974619 -0.0145883 -0.0174794 2.8402e-09 -3.69037e-10 2.83709e-09 4.81178e-09 1.02603e-10
3386 1 0.000635 0.000125679 -0.0139641 -0.0175828 1.7269e-10 6.09204e-09 3.75933e-08 3.52646e-09 4.16413e-11
3472 1 0.000635 0.00120761 -0.0145386 -0.0172483 8.75157e-09 -8.33299e-09 -1.81782e-08 1.6487e-09 1.68508e-10
3559 1 0.000635 0.00228797 -0.0138734 -0.0172225 -9.7306e-10 7.07167e-09 1.62669e-08 6.54762e-10 2.21742e-10
3041 1 0.000635 -0.00426651 -0.012686 -0.0175317 2.34011e-09 1.33147e-09 1.09377e-08 3.29901e-09 1.32196e-10
3127 1 0.000635 -0.00316855 -0.0133199 -0.0175315 3.30362e-10 2.97084e-10 4.18389e-09 3.936e-09 3.39522e-10
3214 1 0.000635 -0.0020727 -0.0127 -0.017712 -9.6327e-05 2.28798e-05 -7.2325e-06 4.48465e-09 7.86697e-11
3300 1 0.000635 -0.0009734 -0.0133354 -0.0176879 4.16574e-10 -1.50491e-09 -1.43765e-08 3.48069e-09 5.13287e-11
3387 1 0.000635 0.000127 -0.0127 -0.017712 -5.83566e-05 -5.49742e-05 1.17541e-06 3.57797e-10 1.9277e-11
3473 1 0.000635 0.00122571 -0.0133339 -0.0176561 3.82286e-10 2.66179e-10 5.0297e-09 4.52076e-10 1.56417e-10
3560 1 0.000635 0.0023267 -0.0127 -0.017712 7.19866e-05 -0.000229544 0.000113029 5.75849e-10 2.49653e-10
3646 1 0.000635 0.00340132 -0.0132815 -0.0173535 8.25266e-10 6.96573e-10 8.76906e-10 5.57642e-10 2.92986e-10
3733 1 0.000635 0.00451008 -0.0126679 -0.0174315 -9.14189e-10 5.10133e-09 1.48764e-08 3.75456e-10 4.59428e-11
2870 1 0.000635 -0.00646374 -0.0114174 -0.017532 -4.57884e-10 -2.29916e-10 -3.35105e-09 2.56612e-09 5.83095e-11
2955 1 0.000635 -0.00536494 -0.0120517 -0.0175317 1.63942e-09 -8.06451e-11 2.55268e-09 2.86525e-09 6.22451e-11
3042 1 0.000635 -0.00427241 -0.01143 -0.017712 1.30521e-06 6.22904e-05 -1.74817e-05 2.57215e-09 1.8415e-11
3128 1 0.000635 -0.00317256 -0.012065 -0.017712 -3.91549e-05 9.28115e-05 -2.00716e-05 3.23668e-09 7.07226e-11
3215 1 0.000635 -0.0020727 -0.01143 -0.017712 3.34846e-08 -7.03459e-08 -3.23464e-06 9.95411e-11 5.17148e-36
3301 1 0.000635 -0.000972852 -0.012065 -0.017712 2.7551e-08 -3.6681e-05 -2.59014e-06 1.03997e-10 6.08101e-12
3388 1 0.000635 0.000127 -0.01143 -0.017712 1.16451e-08 0 -1.13902e-06 2.45844e-11 5.17148e-36
3474 1 0.000635 0.00122685 -0.012065 -0.017712 -2.66361e-08 -8.59279e-06 -5.13622e-06 3.87147e-10 3.07855e-13
3561 1 0.000635 0.0023267 -0.01143 -0.017712 2.54446e-07 -1.50079e-07 -6.78153e-06 4.84969e-10 5.17148e-36
3647 1 0.000635 0.00342656 -0.012065 -0.017712 6.1105e-05 4.68744e-05 -6.15655e-07 4.40766e-10 5.37367e-11
3734 1 0.000635 0.00452641 -0.01143 -0.017712 2.50977e-05 2.12976e-05 3.1578e-06 3.07305e-10 9.68288e-12
3820 1 0.000635 0.0056147 -0.0120432 -0.01748 1.53288e-09 -5.11012e-11 -3.08259e-09 2.88092e-10 8.73353e-12
3906 1 0.000635 0.00671766 -0.0114146 -0.0175158 3.03846e-09 -3.41132e-09 -1.93911e-08 2.39404e-10 1.89186e-12
3991 1 0.000635 0.00779791 -0.0120118 -0.0172167 -1.90166e-09 1.31835e-08 3.53538e-08 2.44668e-09 8.893e-11
2785 1 0.000635 -0.00756263 -0.0107828 -0.017531 -4.97519e-10 1.77931e-09 5.32604e-09 2.35641e-09 8.61002e-11
2956 1 0.000635 -0.00537226 -0.010795 -0.017712 3.17722e-05 3.74702e-05 -1.53107e-05 2.12808e-09 8.99445e-12
3129 1 0.000635 -0.00317256 -0.010795 -0.017712 -8.58605e-10 -5.98137e-08 -3.18474e-06 9.64411e-11 6.46435e-36
3302 1 0.000635 -0.000972852 -0.010795 -0.017712 4.82832e-09 -1.69407e-21 -2.12627e-07 8.55057e-13 5.17148e-36
3475 1 0.000635 0.00122685 -0.010795 -0.017712 1.00983e-08 -1.69407e-21 -4.92692e-07 4.59187e-12 5.17148e-36
3648 1 0.000635 0.00342656 -0.010795 -0.017712 1.65206e-07 -9.97995e-08 -5.21017e-06 2.742e-10 1.0343e-35
3821 1 0.000635 0.00562626 -0.010795 -0.017712 1.234e-05 1.18755e-05 3.43038e-06 2.23752e-10 2.56807e-12
3992 1 0.000635 0.00782024 -0.0107848 -0.0175488 -1.21372e-10 5.17137e-09 1.80507e-08 1.21241e-09 5.87316e-11
4077 1 0.000635 0.00890178 -0.0113845 -0.0172624 4.64868e-09 -8.92132e-10 -1.16274e-08 2.33588e-09 1.18207e-11
2615 1 0.000635 -0.00975872 -0.00951105 -0.0175117 2.32565e-09 4.09272e-09 2.23392e-08 2.30787e-09 2.46364e-10
2700 1 0.000635 -0.00866122 -0.0101475 -0.0175259 1.54253e-09 4.27444e-09 1.8404e-08 2.24653e-09 1.34474e-10
2786 1 0.000635 -0.00757197 -0.009525 -0.017712 7.83193e-05 3.18496e-06 -1.22934e-05 1.44952e-09 4.64922e-11
2871 1 0.000635 -0.00647211 -0.01016 -0.017712 5.61653e-05 1.81979e-05 -1.3529e-05 1.77466e-09 2.12354e-11
2957 1 0.000635 -0.00537226 -0.009525 -0.017712 -3.83545e-08 -4.53683e-08 -3.18804e-06 9.66591e-11 3.74932e-35
3043 1 0.000635 -0.00427241 -0.01016 -0.017712 -2.23781e-08 -5.14897e-08 -3.18049e-06 9.6187e-11 2.71503e-35
3130 1 0.000635 -0.00317256 -0.009525 -0.017712 2.0671e-17 0 2.16e-11 1.05285e-24 6.46435e-36
3216 1 0.000635 -0.0020727 -0.01016 -0.017712 -6.77626e-21 0 2.16e-11 0 5.17148e-36
3303 1 0.000635 -0.000972852 -0.009525 -0.017712 0 0 2.16e-11 0 5.17148e-36
3389 1 0.000635 0.000127 -0.01016 -0.017712 0 0 2.16e-11 0 5.17148e-36
3476 1 0.000635 0.00122685 -0.009525 -0.017712 0 0 2.16e-11 0 5.17148e-36
3562 1 0.000635 0.0023267 -0.01016 -0.017712 0 0 2.16e-11 0 5.17148e-36
3649 1 0.000635 0.00342656 -0.009525 -0.017712 4.13115e-17 0 2.16e-11 0 1.0343e-35
3735 1 0.000635 0.00452641 -0.01016 -0.017712 1.03935e-07 -6.95025e-08 -4.20473e-06 1.74617e-10 3.10289e-35
3822 1 0.000635 0.00562626 -0.009525 -0.017712 7.56403e-08 -4.56392e-08 -3.48469e-06 1.19318e-10 3.74932e-35
3907 1 0.000635 0.00672611 -0.01016 -0.017712 2.24075e-05 -6.45417e-06 5.85854e-06 1.76587e-10 3.2581e-12
3993 1 0.000635 0.00782597 -0.009525 -0.017712 1.86716e-05 -2.86952e-05 4.78404e-06 4.5828e-10 3.55786e-12
4078 1 0.000635 0.00892154 -0.0101499 -0.0175599 3.42842e-09 -1.47675e-09 -1.96226e-08 2.34828e-09 1.2147e-10
4164 1 0.000635 0.0100007 -0.009492 -0.0174133 -3.83015e-09 6.89296e-09 1.41857e-08 2.11808e-09 2.61084e-10
2446 1 0.000635 -0.0119566 -0.00824581 -0.0174548 -6.14589e-09 -8.22826e-09 -3.57316e-08 3.6414e-09 3.35178e-11
2530 1 0.000635 -0.0108563 -0.008877 -0.0174886 3.39337e-09 3.95439e-09 1.77862e-08 2.68595e-09 1.0573e-10
2616 1 0.000635 -0.00977167 -0.008255 -0.017712 -2.94846e-05 -0.000100659 2.0075e-05 7.97625e-10 5.76933e-11
2701 1 0.000635 -0.00867182 -0.00889 -0.017712 0.000105375 -8.88529e-06 -1.26509e-05 1.12191e-09 9.10803e-11
2787 1 0.000635 -0.00757197 -0.008255 -0.017712 -5.7505e-08 -4.29287e-08 -3.36512e-06 1.08087e-10 4.0079e-35
2872 1 0.000635 -0.00647211 -0.00889 -0.017712 -4.95156e-08 -4.2187e-08 -3.23087e-06 9.93317e-11 3.74932e-35
2958 1 0.000635 -0.00537226 -0.008255 -0.017712 1.44607e-16 -7.15799e-17 2.16e-11 5.26426e-25 4.0079e-35
3044 1 0.000635 -0.00427241 -0.00889 -0.017712 -1.03289e-16 -4.76841e-17 2.16e-11 1.05285e-24 2.71503e-35
3131 1 0.000635 -0.00317256 -0.008255 -0.017712 3.09912e-17 -7.75431e-17 2.16e-11 5.26426e-25 1.87466e-35
3217 1 0.000635 -0.0020727 -0.00889 -0.017712 -3.38813e-21 -4.76866e-17 2.16e-11 0 5.17148e-36
3304 1 0.000635 -0.000972852 -0.008255 -0.017712 0 -7.15833e-17 2.16e-11 0 1.0343e-35
3390 1 0.000635 0.000127 -0.00889 -0.017712 0 -4.76866e-17 2.16e-11 0 5.17148e-36
3477 1 0.000635 0.00122685 -0.008255 -0.017712 0 -7.15833e-17 2.16e-11 0 1.0343e-35
3563 1 0.000635 0.0023267 -0.00889 -0.017712 0 -4.76858e-17 2.16e-11 0 5.17148e-36
3650 1 0.000635 0.00342656 -0.008255 -0.017712 4.13098e-17 -7.15825e-17 2.16e-11 0 1.0343e-35
3736 1 0.000635 0.00452641 -0.00889 -0.017712 4.13115e-17 -4.76841e-17 2.16e-11 0 3.10289e-35
3823 1 0.000635 0.00562626 -0.008255 -0.017712 -1.446e-16 -7.15791e-17 2.16e-11 0 4.0079e-35
3908 1 0.000635 0.00672611 -0.00889 -0.017712 4.52567e-08 -5.07203e-08 -3.07162e-06 9.12144e-11 1.68073e-35
3994 1 0.000635 0.00782597 -0.008255 -0.017712 -2.06668e-08 -1.23214e-07 -4.07781e-06 1.73229e-10 1.0343e-35
4079 1 0.000635 0.00892582 -0.00889 -0.017712 -0.000106597 0.000113067 -3.77124e-05 1.16467e-09 8.64735e-11
4165 1 0.000635 0.0100257 -0.008255 -0.017712 0.00043284 7.75778e-05 0.000129452 1.66623e-09 1.1553e-09
2362 1 0.000635 -0.0130539 -0.00761085 -0.0173816 -3.47275e-09 -1.67286e-10 -1.1333e-08 2.98878e-09 1.14952e-10
2447 1 0.000635 -0.0119677 -0.00698395 -0.017595 3.63311e-09 -1.52907e-09 1.93353e-08 4.53873e-10 1.13864e-10
2531 1 0.000635 -0.0108709 -0.00761967 -0.0176653 -1.7103e-09 -1.98717e-09 -1.79571e-08 5.46522e-10 2.00604e-11
2617 1 0.000635 -0.00977167 -0.006985 -0.017712 -6.58057e-06 -3.7408e-06 -2.54108e-06 1.05866e-10 2.51524e-13
2702 1 0.000635 -0.00867182 -0.00762 -0.017712 -7.71985e-08 -2.80172e-08 -3.61003e-06 1.25213e-10 2.9736e-35
2788 1 0.000635 -0.00757197 -0.006985 -0.017712 1.44605e-16 -2.38958e-17 2.16e-11 0 4.0079e-35
2873 1 0.000635 -0.00647211 -0.00762 -0.017712 -1.44609e-16 2.38967e-17 2.16e-11 0 4.0079e-35
2959 1 0.000635 -0.00537226 -0.006985 -0.017712 1.44605e-16 -2.38958e-17 2.16e-11 0 4.0079e-35
3045 1 0.000635 -0.00427241 -0.00762 -0.017712 -1.13623e-16 2.98573e-17 2.16e-11 0 2.90896e-35
3132 1 0.000635 -0.00317256 -0.006985 -0.017712 3.09912e-17 -2.98573e-17 2.16e-11 0 1.87466e-35
3218 1 0.000635 -0.0020727 -0.00762 -0.017712 -1.69407e-21 2.38958e-17 2.16e-11 0 1.0343e-35
3305 1 0.000635 -0.000972852 -0.006985 -0.017712 0 -2.38967e-17 2.16e-11 0 1.0343e-35
3391 1 0.000635 0.000127 -0.00762 -0.017712 0 2.38967e-17 2.16e-11 0 1.0343e-35
3478 1 0.000635 0.00122685 -0.006985 -0.017712 0 -2.38967e-17 2.16e-11 0 1.0343e-35
3564 1 0.000635 0.0023267 -0.00762 -0.017712 0 2.38967e-17 2.16e-11 0 1.0343e-35
3651 1 0.000635 0.00342656 -0.006985 -0.017712 4.13081e-17 -2.38967e-17 2.16e-11 0 1.0343e-35
3737 1 0.000635 0.00452641 -0.00762 -0.017712 4.13217e-17 2.38958e-17 2.16e-11 0 2.06859e-35
3824 1 0.000635 0.00562626 -0.006985 -0.017712 -1.44599e-16 -2.3895e-17 2.16e-11 0 4.0079e-35
3909 1 0.000635 0.00672611 -0.00762 -0.017712 6.19757e-17 2.38958e-17 2.16e-11 0 2.9736e-35
3995 1 0.000635 0.00782597 -0.006985 -0.017712 -6.77626e-21 -2.38967e-17 2.16e-11 0 1.0343e-35
4080 1 0.000635 0.00892582 -0.00762 -0.017712 -9.97185e-08 -2.3805e-07 -7.15889e-06 7.25261e-10 1.0343e-35
4166 1 0.000635 0.0100257 -0.006985 -0.017712 -0.000111567 6.35907e-05 -2.47759e-05 1.2961e-09 7.74636e-11
4251 1 0.000635 0.0111161 -0.00760889 -0.0175429 -4.3916e-09 5.36327e-09 2.83667e-08 2.05437e-09 1.80004e-09
4336 1 0.000635 0.0121484 -0.00692292 -0.0172363 -1.41567e-09 3.96019e-09 1.18556e-08 2.50723e-09 1.48321e-09
2363 1 0.000635 -0.0130435 -0.00634192 -0.0173912 6.41146e-09 -1.78784e-09 1.56192e-08 5.49021e-10 1.2898e-10
2448 1 0.000635 -0.0119704 -0.00571567 -0.0176634 -2.37653e-10 -1.86514e-09 -1.32029e-08 3.71668e-10 1.29011e-10
2532 1 0.000635 -0.0108715 -0.00635 -0.017712 -6.90066e-05 -8.27797e-05 8.77998e-06 1.51597e-10 4.43e-11
2618 1 0.000635 -0.00977167 -0.005715 -0.017712 -4.06697e-09 7.0442e-09 -1.03041e-06 2.01094e-11 6.85221e-35
2703 1 0.000635 -0.00867182 -0.00635 -0.017712 -1.82521e-10 3.16136e-10 -4.1215e-07 3.21153e-12 2.9736e-35
2789 1 0.000635 -0.00757197 -0.005715 -0.017712 1.44602e-16 4.76832e-17 2.16e-11 0 3.74932e-35
2874 1 0.000635 -0.00647211 -0.00635 -0.017712 -1.44609e-16 7.15816e-17 2.16e-11 0 4.0079e-35
2960 1 0.000635 -0.00537226 -0.005715 -0.017712 1.44604e-16 4.76841e-17 2.16e-11 5.26426e-25 3.74932e-35
3046 1 0.000635 -0.00427241 -0.00635 -0.017712 -1.13621e-16 7.75431e-17 2.16e-11 0 2.90896e-35
3133 1 0.000635 -0.00317256 -0.005715 -0.017712 2.0671e-17 4.76858e-17 2.16e-11 5.26426e-25 6.46435e-36
3219 1 0.000635 -0.0020727 -0.00635 -0.017712 -5.0822e-21 7.15842e-17 2.16e-11 0 1.0343e-35
3306 1 0.000635 -0.000972852 -0.005715 -0.017712 0 4.76866e-17 2.16e-11 0 5.17148e-36
3392 1 0.000635 0.000127 -0.00635 -0.017712 0 7.1585e-17 2.16e-11 0 1.0343e-35
3479 1 0.000635 0.00122685 -0.005715 -0.017712 0 4.76866e-17 2.16e-11 0 5.17148e-36
3565 1 0.000635 0.0023267 -0.00635 -0.017712 0 7.15842e-17 2.16e-11 0 1.0343e-35
3652 1 0.000635 0.00342656 -0.005715 -0.017712 4.13098e-17 4.76858e-17 2.16e-11 0 1.0343e-35
3738 1 0.000635 0.00452641 -0.00635 -0.017712 4.13183e-17 7.15816e-17 2.16e-11 0 2.06859e-35
3825 1 0.000635 0.00562626 -0.005715 -0.017712 -1.44597e-16 4.76841e-17 2.16e-11 0 3.74932e-35
3910 1 0.000635 0.00672611 -0.00635 -0.017712 6.19774e-17 7.15825e-17 2.16e-11 0 2.9736e-35
3996 1 0.000635 0.00782597 -0.005715 -0.017712 -6.77626e-21 4.76849e-17 2.16e-11 0 5.17148e-36
4081 1 0.000635 0.00892582 -0.00635 -0.017712 -2.16611e-08 -3.75182e-08 -1.49451e-06 4.24356e-11 1.0343e-35
4167 1 0.000635 0.0100257 -0.005715 -0.017712 -6.76845e-08 -1.17233e-07 -4.2114e-06 3.48308e-10 6.85221e-35
4252 1 0.000635 0.0111255 -0.00635 -0.017712 -0.000402999 -9.32111e-06 -0.000106102 1.87359e-09 5.38289e-10
4337 1 0.000635 0.0122206 -0.00571808 -0.0176491 -9.48773e-10 2.29e-09 1.49218e-08 2.72735e-09 1.18639e-09
2364 1 0.000635 -0.0130261 -0.00507359 -0.0173777 7.94217e-09 -2.61986e-09 1.33849e-08 4.57946e-10 2.96854e-10
2533 1 0.000635 -0.0108715 -0.00508 -0.017712 -2.04107e-05 -1.19487e-05 -3.84667e-06 2.81663e-10 2.4776e-12
2704 1 0.000635 -0.00867182 -0.00508 -0.017712 -6.19774e-17 -2.3845e-17 2.16e-11 0 1.42216e-35
2875 1 0.000635 -0.00647211 -0.00508 -0.017712 -1.44605e-16 -2.38442e-17 2.16e-11 0 3.49075e-35
3047 1 0.000635 -0.00427241 -0.00508 -0.017712 -1.03287e-16 -2.38433e-17 2.16e-11 1.57928e-24 2.45645e-35
3220 1 0.000635 -0.0020727 -0.00508 -0.017712 -3.38813e-21 -2.38442e-17 2.16e-11 0 2.58574e-36
3393 1 0.000635 0.000127 -0.00508 -0.017712 0 -2.38442e-17 2.16e-11 0 2.58574e-36
3566 1 0.000635 0.0023267 -0.00508 -0.017712 -3.38813e-21 -2.38459e-17 2.16e-11 0 2.58574e-36
3739 1 0.000635 0.00452641 -0.00508 -0.017712 4.13081e-17 -2.38433e-17 2.16e-11 5.26426e-25 2.84431e-35
3911 1 0.000635 0.00672611 -0.00508 -0.017712 6.19859e-17 -2.38442e-17 2.16e-11 0 1.42216e-35
4082 1 0.000635 0.00892582 -0.00508 -0.017712 -8.47033e-21 -2.3845e-17 2.16e-11 0 2.58574e-36
4253 1 0.000635 0.0111255 -0.00508 -0.017712 -4.78523e-05 2.72353e-05 -1.27076e-05 1.27159e-09 1.40833e-11
4422 1 0.000635 0.0132935 -0.00507816 -0.0174388 -4.24554e-10 2.87764e-09 9.8713e-09 3.49925e-09 2.96434e-10
2365 1 0.000635 -0.0130088 -0.00380694 -0.0173478 -1.24895e-08 -9.82253e-10 -3.16364e-08 5.3384e-10 2.11516e-10
2449 1 0.000635 -0.0119714 -0.004445 -0.017712 -0.000173044 -0.000122507 7.05453e-05 4.49207e-10 1.4811e-10
2534 1 0.000635 -0.0108715 -0.00381 -0.017712 -2.16544e-07 -1.16053e-07 -6.14386e-06 3.66372e-10 4.65433e-35
2619 1 0.000635 -0.00977167 -0.004445 -0.017712 -4.69367e-09 8.12967e-09 -4.28312e-07 3.47008e-12 6.01185e-35
2705 1 0.000635 -0.00867182 -0.00381 -0.017712 -8.2623e-17 0 2.16e-11 1.05285e-24 2.06859e-35
2790 1 0.000635 -0.00757197 -0.004445 -0.017712 1.44602e-16 -5.96282e-17 2.16e-11 5.26426e-25 3.74932e-35
2876 1 0.000635 -0.00647211 -0.00381 -0.017712 -1.44605e-16 0 2.16e-11 0 3.23218e-35
2961 1 0.000635 -0.00537226 -0.004445 -0.017712 1.44604e-16 -5.9629e-17 2.16e-11 5.26426e-25 3.74932e-35
3048 1 0.000635 -0.00427241 -0.00381 -0.017712 -1.03291e-16 0 2.16e-11 0 1.68073e-35
3134 1 0.000635 -0.00317256 -0.004445 -0.017712 3.09963e-17 -5.36693e-17 2.16e-11 1.57928e-24 8.40366e-36
3221 1 0.000635 -0.0020727 -0.00381 -0.017712 -6.77626e-21 0 2.16e-11 2.10571e-24 0
3307 1 0.000635 -0.000972852 -0.004445 -0.017712 0 -4.77053e-17 2.16e-11 1.05285e-24 5.17148e-36
3394 1 0.000635 0.000127 -0.00381 -0.017712 0 0 2.16e-11 1.05285e-24 0
3480 1 0.000635 0.00122685 -0.004445 -0.017712 0 -4.77053e-17 2.16e-11 1.05285e-24 5.17148e-36
3567 1 0.000635 0.0023267 -0.00381 -0.017712 0 0 2.16e-11 2.10571e-24 0
3653 1 0.000635 0.00342656 -0.004445 -0.017712 3.09811e-17 -5.36701e-17 2.16e-11 1.05285e-24 8.40366e-36
3740 1 0.000635 0.00452641 -0.00381 -0.017712 4.13217e-17 7.70372e-34 2.16e-11 0 1.29287e-35
3826 1 0.000635 0.00562626 -0.004445 -0.017712 -1.44597e-16 -5.9629e-17 2.16e-11 5.26426e-25 3.74932e-35
3912 1 0.000635 0.00672611 -0.00381 -0.017712 8.26298e-17 0 2.16e-11 1.05285e-24 2.06859e-35
3997 1 0.000635 0.00782597 -0.004445 -0.017712 -3.38813e-21 -4.77061e-17 2.16e-11 1.05285e-24 5.17148e-36
4083 1 0.000635 0.00892582 -0.00381 -0.017712 -6.77626e-21 0 2.16e-11 1.05285e-24 0
4168 1 0.000635 0.0100257 -0.004445 -0.017712 2.22753e-08 3.8582e-08 -5.55118e-07 5.86501e-12 6.01185e-35
4254 1 0.000635 0.0111255 -0.00381 -0.017712 1.47148e-07 -3.74567e-08 -4.91936e-06 2.32461e-10 4.65433e-35
4338 1 0.000635 0.0122254 -0.004445 -0.017712 0.00014913 -0.000245875 4.71065e-05 2.8832e-09 3.68888e-10
4423 1 0.000635 0.0132933 -0.00380861 -0.0174434 6.82842e-09 1.58142e-09 -1.80844e-08 2.12793e-09 1.15501e-10
2366 1 0.000635 -0.0130097 -0.00253839 -0.0173488 1.26081e-08 -4.41824e-10 2.43703e-08 5.01374e-10 6.13218e-11
2450 1 0.000635 -0.0119714 -0.003175 -0.017712 4.01736e-05 7.45679e-05 -4.80217e-06 5.12909e-10 5.57494e-11
2535 1 0.000635 -0.0108715 -0.00254 -0.017712 -2.66886e-07 -2.56381e-08 -6.45069e-06 4.04512e-10 6.33506e-35
2620 1 0.000635 -0.00977167 -0.003175 -0.017712 -1.3427e-16 4.1748e-17 2.16e-11 5.26426e-25 5.81792e-35
2706 1 0.000635 -0.00867182 -0.00254 -0.017712 -7.2301e-17 -5.97417e-18 2.16e-11 0 1.61609e-35
2791 1 0.000635 -0.00757197 -0.003175 -0.017712 1.44602e-16 4.77053e-17 2.16e-11 5.26426e-25 3.55539e-35
2877 1 0.000635 -0.00647211 -0.00254 -0.017712 -1.44605e-16 -1.19365e-17 2.16e-11 0 3.23218e-35
2962 1 0.000635 -0.00537226 -0.003175 -0.017712 1.44604e-16 4.7707e-17 2.16e-11 0 3.55539e-35
3049 1 0.000635 -0.00427241 -0.00254 -0.017712 -1.03284e-16 -1.19373e-17 2.16e-11 5.26426e-25 1.93931e-35
3135 1 0.000635 -0.00317256 -0.003175 -0.017712 3.09963e-17 4.17472e-17 2.16e-11 1.05285e-24 6.46435e-36
3222 1 0.000635 -0.0020727 -0.00254 -0.017712 0 -1.43996e-20 2.16e-11 0 0
3308 1 0.000635 -0.000972852 -0.003175 -0.017712 0 3.57823e-17 2.16e-11 1.05285e-24 3.23218e-36
3395 1 0.000635 0.000127 -0.00254 -0.017712 0 -1.35525e-20 2.16e-11 0 0
3481 1 0.000635 0.00122685 -0.003175 -0.017712 0 3.57823e-17 2.16e-11 1.05285e-24 3.23218e-36
3568 1 0.000635 0.0023267 -0.00254 -0.017712 -6.77626e-21 -1.35525e-20 2.16e-11 0 0
3654 1 0.000635 0.00342656 -0.003175 -0.017712 3.09777e-17 4.17463e-17 2.16e-11 1.05285e-24 6.46435e-36
3741 1 0.000635 0.00452641 -0.00254 -0.017712 4.13115e-17 -1.19382e-17 2.16e-11 5.26426e-25 1.93931e-35
3827 1 0.000635 0.00562626 -0.003175 -0.017712 -1.44595e-16 4.77053e-17 2.16e-11 5.26426e-25 3.55539e-35
3913 1 0.000635 0.00672611 -0.00254 -0.017712 7.23095e-17 -5.97502e-18 2.16e-11 0 1.61609e-35
3998 1 0.000635 0.00782597 -0.003175 -0.017712 0 3.57823e-17 2.16e-11 1.05285e-24 3.23218e-36
4084 1 0.000635 0.00892582 -0.00254 -0.017712 -8.47033e-21 -1.27055e-20 2.16e-11 0 0
4169 1 0.000635 0.0100257 -0.003175 -0.017712 1.3427e-16 4.1748e-17 2.16e-11 5.26426e-25 5.81792e-35
4255 1 0.000635 0.0111255 -0.00254 -0.017712 1.4752e-07 -2.97456e-08 -4.86486e-06 2.27349e-10 6.33506e-35
4339 1 0.000635 0.0122254 -0.003175 -0.017712 4.46603e-05 3.81398e-06 1.83906e-05 2.98038e-10 6.72286e-12
4424 1 0.000635 0.013288 -0.00253941 -0.017427 -3.21754e-09 8.51472e-10 1.24606e-08 3.30209e-10 1.44815e-11
2367 1 0.000635 -0.0130085 -0.00126932 -0.0173452 3.98382e-09 -1.45157e-10 3.26591e-09 4.85501e-10 2.4054e-11
2451 1 0.000635 -0.0119714 -0.001905 -0.017712 7.73519e-06 3.37486e-05 7.68206e-06 4.83734e-10 1.04757e-11
2536 1 0.000635 -0.0108715 -0.00127 -0.017712 -2.69589e-07 -1.7726e-08 -6.45904e-06 4.05651e-10 6.33506e-35
2621 1 0.000635 -0.00977167 -0.001905 -0.017712 -1.44592e-16 -1.19229e-17 2.16e-11 5.26426e-25 6.39971e-35
2707 1 0.000635 -0.00867182 -0.00127 -0.017712 -7.2301e-17 5.96909e-18 2.16e-11 5.26426e-25 1.61609e-35
2792 1 0.000635 -0.00757197 -0.001905 -0.017712 1.44605e-16 -1.19229e-17 2.16e-11 0 3.29682e-35
2878 1 0.000635 -0.00647211 -0.00127 -0.017712 -1.44605e-16 1.19331e-17 2.16e-11 0 3.23218e-35
2963 1 0.000635 -0.00537226 -0.001905 -0.017712 1.44602e-16 -1.19246e-17 2.16e-11 0 3.29682e-35
3050 1 0.000635 -0.00427241 -0.00127 -0.017712 -1.13613e-16 5.96993e-18 2.16e-11 0 2.13324e-35
3136 1 0.000635 -0.00317256 -0.001905 -0.017712 4.13081e-17 -1.19229e-17 2.16e-11 0 5.81792e-36
3223 1 0.000635 -0.0020727 -0.00127 -0.017712 0 7.6233e-21 2.16e-11 0 0
3309 1 0.000635 -0.000972852 -0.001905 -0.017712 0 -1.19229e-17 2.16e-11 0 6.46435e-37
3396 1 0.000635 0.000127 -0.00127 -0.017712 0 6.77626e-21 2.16e-11 0 0
3482 1 0.000635 0.00122685 -0.001905 -0.017712 0 -1.19229e-17 2.16e-11 0 6.46435e-37
3569 1 0.000635 0.0023267 -0.00127 -0.017712 -6.77626e-21 6.77626e-21 2.16e-11 0 0
3655 1 0.000635 0.00342656 -0.001905 -0.017712 2.06608e-17 -1.19229e-17 2.16e-11 0 1.93931e-36
3742 1 0.000635 0.00452641 -0.00127 -0.017712 4.13149e-17 1.19331e-17 2.16e-11 5.26426e-25 1.93931e-35
3828 1 0.000635 0.00562626 -0.001905 -0.017712 -1.44599e-16 -1.19229e-17 2.16e-11 0 3.29682e-35
3914 1 0.000635 0.00672611 -0.00127 -0.017712 7.23078e-17 5.96909e-18 2.16e-11 5.26426e-25 1.61609e-35
3999 1 0.000635 0.00782597 -0.001905 -0.017712 -6.77626e-21 -1.19229e-17 2.16e-11 5.26426e-25 6.46435e-37
4085 1 0.000635 0.00892582 -0.00127 -0.017712 -6.77626e-21 6.77626e-21 2.16e-11 0 0
4170 1 0.000635 0.0100257 -0.001905 -0.017712 1.44599e-16 -1.19229e-17 2.16e-11 0 6.39971e-35
4256 1 0.000635 0.0111255 -0.00127 -0.017712 1.60633e-07 -1.4279e-09 -4.99817e-06 2.40073e-10 6.33506e-35
4340 1 0.000635 0.0122254 -0.001905 -0.017712 6.45224e-06 6.12521e-06 9.60612e-06 2.91663e-10 5.08031e-13
4425 1 0.000635 0.0132883 -0.00126978 -0.0174289 -4.91279e-09 6.00568e-10 1.77206e-08 3.21148e-10 3.29932e-12
2368 1 0.000635 -0.0130077 -1.57925e-08 -0.017343 -1.13261e-08 1.37966e-10 -3.30962e-08 4.78863e-10 1.54327e-11
2452 1 0.000635 -0.0119714 -0.000635 -0.017712 -1.56797e-06 9.30107e-06 1.1372e-05 4.69994e-10 8.12084e-13
2622 1 0.000635 -0.00977167 -0.000635 -0.017712 -1.44599e-16 -8.47033e-21 2.16e-11 0 6.33506e-35
2793 1 0.000635 -0.00757197 -0.000635 -0.017712 1.44604e-16 -1.19339e-17 2.16e-11 5.26426e-25 3.23218e-35
2964 1 0.000635 -0.00537226 -0.000635 -0.017712 1.44604e-16 -1.19365e-17 2.16e-11 0 3.23218e-35
3137 1 0.000635 -0.00317256 -0.000635 -0.017712 4.13183e-17 -8.47033e-21 2.16e-11 0 5.17148e-36
3310 1 0.000635 -0.000972852 -0.000635 -0.017712 0 -8.47033e-21 2.16e-11 0 0
3483 1 0.000635 0.00122685 -0.000635 -0.017712 0 -8.47033e-21 2.16e-11 0 0
3656 1 0.000635 0.00342656 -0.000635 -0.017712 3.09811e-17 -5.97078e-18 2.16e-11 5.26426e-25 3.23218e-36
3829 1 0.000635 0.00562626 -0.000635 -0.017712 -1.44597e-16 -1.19339e-17 2.16e-11 5.26426e-25 3.23218e-35
4000 1 0.000635 0.00782597 -0.000635 -0.017712 0 -8.47033e-21 2.16e-11 0 0
4171 1 0.000635 0.0100257 -0.000635 -0.017712 1.44599e-16 -8.47033e-21 2.16e-11 0 6.33506e-35
4341 1 0.000635 0.0122254 -0.000635 -0.017712 7.07706e-07 2.41092e-06 7.65913e-06 3.03385e-10 5.84269e-14
4426 1 0.000635 0.0132886 -4.38907e-11 -0.0174303 8.94613e-09 6.08921e-11 -2.3272e-08 3.24551e-10 1.50967e-12
2453 1 0.000635 -0.0119714 0.000635 -0.017712 -2.68578e-06 -9.45873e-06 1.18627e-05 4.69655e-10 8.67279e-13
2537 1 0.000635 -0.0108715 0 -0.017712 -2.73162e-07 -2.89025e-09 -6.4916e-06 4.09866e-10 6.33506e-35
2623 1 0.000635 -0.00977167 0.000635 -0.017712 -1.44599e-16 -3.38813e-21 2.16e-11 0 6.33506e-35
2708 1 0.000635 -0.00867182 0 -0.017712 -8.26247e-17 5.92923e-21 2.16e-11 0 2.06859e-35
2794 1 0.000635 -0.00757197 0.000635 -0.017712 1.44602e-16 -3.38813e-21 2.16e-11 0 3.23218e-35
2879 1 0.000635 -0.00647211 0 -0.017712 -1.44605e-16 5.0822e-21 2.16e-11 0 3.23218e-35
2965 1 0.000635 -0.00537226 0.000635 -0.017712 1.44602e-16 -3.38813e-21 2.16e-11 0 3.23218e-35
3051 1 0.000635 -0.00427241 0 -0.017712 -1.03282e-16 5.92923e-21 2.16e-11 0 1.68073e-35
3138 1 0.000635 -0.00317256 0.000635 -0.017712 4.13149e-17 -3.38813e-21 2.16e-11 0 5.17148e-36
3224 1 0.000635 -0.0020727 0 -0.017712 0 6.77626e-21 2.16e-11 0 0
3311 1 0.000635 -0.000972852 0.000635 -0.017712 0 -3.38813e-21 2.16e-11 0 0
3397 1 0.000635 0.000127 0 -0.017712 0 6.77626e-21 2.16e-11 0 0
3484 1 0.000635 0.00122685 0.000635 -0.017712 0 -3.38813e-21 2.16e-11 0 0
3570 1 0.000635 0.0023267 0 -0.017712 -3.38813e-21 5.0822e-21 2.16e-11 5.26426e-25 0
3657 1 0.000635 0.00342656 0.000635 -0.017712 2.06574e-17 -3.38813e-21 2.16e-11 0 1.29287e-36
3743 1 0.000635 0.00452641 0 -0.017712 4.13132e-17 5.92923e-21 2.16e-11 0 1.29287e-35
3830 1 0.000635 0.00562626 0.000635 -0.017712 -1.44595e-16 -3.38813e-21 2.16e-11 0 3.23218e-35
3915 1 0.000635 0.00672611 0 -0.017712 8.26315e-17 5.92923e-21 2.16e-11 0 2.06859e-35
4001 1 0.000635 0.00782597 0.000635 -0.017712 0 -3.38813e-21 2.16e-11 0 0
4086 1 0.000635 0.00892582 0 -0.017712 -6.77626e-21 6.77626e-21 2.16e-11 0 0
4172 1 0.000635 0.0100257 0.000635 -0.017712 1.44599e-16 -3.38813e-21 2.16e-11 0 6.33506e-35
4257 1 0.000635 0.0111255 0 -0.017712 1.61373e-07 -2.63947e-13 -4.99431e-06 2.39699e-10 6.33506e-35
4342 1 0.000635 0.0122254 0.000635 -0.017712 7.07241e-07 -2.41361e-06 7.65902e-06 3.03385e-10 5.85414e-14
2369 1 0.000635 -0.0130077 0.0012693 -0.0173429 -2.49987e-09 4.90432e-10 -1.2341e-08 4.82569e-10 2.44691e-11
2454 1 0.000635 -0.0119714 0.001905 -0.017712 4.61769e-06 -3.3456e-05 9.0166e-06 4.81315e-10 1.01956e-11
2538 1 0.000635 -0.0108715 0.00127 -0.017712 -2.73024e-07 1.21887e-08 -6.49849e-06 4.10745e-10 6.33506e-35
2624 1 0.000635 -0.00977167 0.001905 -0.017712 -1.44595e-16 1.19221e-17 2.16e-11 0 6.39971e-35
2709 1 0.000635 -0.00867182 0.00127 -0.017712 -8.26264e-17 0 2.16e-11 0 2.06859e-35
2795 1 0.000635 -0.00757197 0.001905 -0.017712 1.44604e-16 1.19221e-17 2.16e-11 0 3.29682e-35
2880 1 0.000635 -0.00647211 0.00127 -0.017712 -1.44605e-16 0 2.16e-11 0 3.23218e-35
2966 1 0.000635 -0.00537226 0.001905 -0.017712 1.44604e-16 1.19238e-17 2.16e-11 0 3.29682e-35
3052 1 0.000635 -0.00427241 0.00127 -0.017712 -1.0328e-16 0 2.16e-11 0 1.68073e-35
3139 1 0.000635 -0.00317256 0.001905 -0.017712 4.13115e-17 1.19229e-17 2.16e-11 0 5.81792e-36
3225 1 0.000635 -0.0020727 0.00127 -0.017712 0 0 2.16e-11 0 0
3312 1 0.000635 -0.000972852 0.001905 -0.017712 0 1.19212e-17 2.16e-11 0 6.46435e-37
3398 1 0.000635 0.000127 0.00127 -0.017712 0 0 2.16e-11 0 0
3485 1 0.000635 0.00122685 0.001905 -0.017712 0 1.19212e-17 2.16e-11 0 6.46435e-37
3571 1 0.000635 0.0023267 0.00127 -0.017712 -6.77626e-21 0 2.16e-11 0 0
3658 1 0.000635 0.00342656 0.001905 -0.017712 2.06591e-17 1.19221e-17 2.16e-11 0 1.93931e-36
3744 1 0.000635 0.00452641 0.00127 -0.017712 4.13115e-17 0 2.16e-11 0 1.29287e-35
3831 1 0.000635 0.00562626 0.001905 -0.017712 -1.44597e-16 1.19221e-17 2.16e-11 0 3.29682e-35
3916 1 0.000635 0.00672611 0.00127 -0.017712 8.26331e-17 0 2.16e-11 0 2.06859e-35
4002 1 0.000635 0.00782597 0.001905 -0.017712 -3.38813e-21 1.19221e-17 2.16e-11 0 6.46435e-37
4087 1 0.000635 0.00892582 0.00127 -0.017712 -6.77626e-21 0 2.16e-11 0 0
4173 1 0.000635 0.0100257 0.001905 -0.017712 1.44599e-16 1.19212e-17 2.16e-11 0 6.39971e-35
4258 1 0.000635 0.0111255 0.00127 -0.017712 1.60634e-07 1.42747e-09 -4.99819e-06 2.40074e-10 6.33506e-35
4343 1 0.000635 0.0122254 0.001905 -0.017712 6.4508e-06 -6.12748e-06 9.60578e-06 2.91664e-10 5.08218e-13
4427 1 0.000635 0.0132883 0.00126978 -0.0174289 -4.85658e-09 -4.85681e-10 1.75651e-08 3.21149e-10 3.29915e-12
2370 1 0.000635 -0.0130081 0.00253838 -0.0173443 6.33386e-09 9.62128e-10 1.04878e-08 4.97883e-10 6.21617e-11
2455 1 0.000635 -0.0119714 0.003175 -0.017712 3.75348e-05 -7.57573e-05 -3.74331e-06 5.08171e-10 5.67025e-11
2539 1 0.000635 -0.0108715 0.00254 -0.017712 -2.73752e-07 2.00583e-08 -6.52888e-06 4.14679e-10 6.33506e-35
2625 1 0.000635 -0.00977167 0.003175 -0.017712 -1.3427e-16 -4.1748e-17 2.16e-11 5.26426e-25 5.81792e-35
2710 1 0.000635 -0.00867182 0.00254 -0.017712 -7.2301e-17 5.97417e-18 2.16e-11 0 1.61609e-35
2796 1 0.000635 -0.00757197 0.003175 -0.017712 1.44602e-16 -4.77053e-17 2.16e-11 5.26426e-25 3.55539e-35
2881 1 0.000635 -0.00647211 0.00254 -0.017712 -1.44605e-16 1.19365e-17 2.16e-11 0 3.23218e-35
2967 1 0.000635 -0.00537226 0.003175 -0.017712 1.44604e-16 -4.7707e-17 2.16e-11 0 3.55539e-35
3053 1 0.000635 -0.00427241 0.00254 -0.017712 -1.03284e-16 1.19373e-17 2.16e-11 5.26426e-25 1.93931e-35
3140 1 0.000635 -0.00317256 0.003175 -0.017712 3.09963e-17 -4.17472e-17 2.16e-11 1.05285e-24 6.46435e-36
3226 1 0.000635 -0.0020727 0.00254 -0.017712 0 1.43996e-20 2.16e-11 0 0
3313 1 0.000635 -0.000972852 0.003175 -0.017712 0 -3.57823e-17 2.16e-11 1.05285e-24 3.23218e-36
3399 1 0.000635 0.000127 0.00254 -0.017712 0 1.35525e-20 2.16e-11 0 0
3486 1 0.000635 0.00122685 0.003175 -0.017712 0 -3.57823e-17 2.16e-11 1.05285e-24 3.23218e-36
3572 1 0.000635 0.0023267 0.00254 -0.017712 -6.77626e-21 1.35525e-20 2.16e-11 0 0
3659 1 0.000635 0.00342656 0.003175 -0.017712 3.09777e-17 -4.17463e-17 2.16e-11 1.05285e-24 6.46435e-36
3745 1 0.000635 0.00452641 0.00254 -0.017712 4.13115e-17 1.19382e-17 2.16e-11 5.26426e-25 1.93931e-35
3832 1 0.000635 0.00562626 0.003175 -0.017712 -1.44595e-16 -4.77053e-17 2.16e-11 5.26426e-25 3.55539e-35
3917 1 0.000635 0.00672611 0.00254 -0.017712 7.23095e-17 5.97502e-18 2.16e-11 0 1.61609e-35
4003 1 0.000635 0.00782597 0.003175 -0.017712 0 -3.57823e-17 2.16e-11 1.05285e-24 3.23218e-36
4088 1 0.000635 0.00892582 0.00254 -0.017712 -8.47033e-21 1.27055e-20 2.16e-11 0 0
4174 1 0.000635 0.0100257 0.003175 -0.017712 1.3427e-16 -4.1748e-17 2.16e-11 5.26426e-25 5.81792e-35
4259 1 0.000635 0.0111255 0.00254 -0.017712 1.4752e-07 2.97473e-08 -4.86487e-06 2.2735e-10 6.33506e-35
4344 1 0.000635 0.0122254 0.003175 -0.017712 4.46617e-05 -3.81372e-06 1.83911e-05 2.98039e-10 6.72327e-12
4428 1 0.000635 0.013288 0.00253941 -0.017427 -3.13876e-09 -7.41814e-10 1.2257e-08 3.3021e-10 1.44806e-11
2371 1 0.000635 -0.0130065 0.00380693 -0.0173412 7.66663e-09 1.11434e-09 1.48777e-08 5.2502e-10 2.095e-10
2456 1 0.000635 -0.0119714 0.004445 -0.017712 -0.000176442 0.000123878 7.30774e-05 4.47651e-10 1.53581e-10