ITEM: TIMESTEP
70000
ITEM: NUMBER OF ATOMS
6793
ITEM: BOX BOUNDS ff ff ff
-8.9999999999999997e-02 8.9999999999999997e-02
-8.9999999999999997e-02 8.9999999999999997e-02
-4.0000000000000001e-02 4.0000000000000001e-02
ITEM: ATOMS id type radius x y z fx fy fz c_bendingE c_stretchingE
3195 1 0.000635 -0.00206158 -0.0368194 -4.91546e-06 -6.49853e-11 1.47591e-10 2.48841e-09 6.37939e-14 1.87359e-13
3368 1 0.000635 0.000137981 -0.0368186 -1.10388e-05 -8.02684e-11 2.22901e-10 4.14773e-09 1.06381e-13 1.84654e-13
3541 1 0.000635 0.00233754 -0.0368174 -4.08134e-06 -8.03012e-11 2.55919e-10 5.10708e-09 2.23345e-13 1.62151e-13
2851 1 0.000635 -0.00646103 -0.0355505 -2.52562e-06 -7.82252e-11 1.46964e-11 -4.551e-11 4.39091e-14 2.19788e-13
3023 1 0.000635 -0.00426163 -0.0355504 -2.84367e-05 -4.15599e-11 1.82194e-10 3.93336e-09 4.17314e-14 2.11065e-13
3109 1 0.000635 -0.00316162 -0.0361849 -1.82965e-05 -5.85795e-11 1.40896e-10 2.43956e-09 5.26058e-14 2.00663e-13
3196 1 0.000635 -0.00206216 -0.0355501 -4.73319e-05 -5.78441e-11 1.61476e-10 2.71963e-09 8.39989e-14 2.08757e-13
3282 1 0.000635 -0.000962096 -0.0361843 -2.95919e-05 -1.14409e-10 -3.44419e-10 -1.24224e-08 1.1087e-13 2.03355e-13
3369 1 0.000635 0.000137384 -0.0355493 -5.39644e-05 -7.68425e-11 2.13133e-10 3.7e-09 1.21603e-13 2.08798e-13
3455 1 0.000635 0.00123746 -0.0361834 -2.98498e-05 -1.15689e-10 6.12567e-10 1.55732e-08 1.50587e-13 1.94449e-13
3542 1 0.000635 0.00233693 -0.0355481 -4.54766e-05 -6.31409e-11 2.15717e-10 3.5538e-09 2.94669e-13 1.98328e-13
3628 1 0.000635 0.00343698 -0.0361819 -1.4735e-05 -7.6742e-11 1.73663e-10 2.70048e-09 7.01024e-13 1.63233e-13
3715 1 0.000635 0.00453641 -0.0355464 -2.43311e-05 3.4798e-11 -3.82794e-10 -1.41774e-08 1.24385e-12 2.10525e-13
3801 1 0.000635 0.00563652 -0.0361806 -3.34089e-06 -3.38255e-11 1.75479e-10 2.88394e-09 7.68982e-13 2.01521e-13
3887 1 0.000635 0.006736 -0.0355453 -2.04259e-05 -3.09458e-11 7.46873e-11 -7.88823e-10 3.84693e-13 1.83048e-13
4058 1 0.000635 0.00893556 -0.0355439 -6.47101e-06 -5.3947e-11 1.48867e-10 2.39948e-09 8.09469e-13 1.4812e-13
2008 1 0.000635 -0.0174592 -0.0342842 8.93812e-06 -5.59385e-11 -1.51464e-10 -8.11555e-10 6.60505e-14 2.1096e-13
2173 1 0.000635 -0.0152596 -0.0342835 2.37253e-06 -6.62834e-11 -1.23727e-10 -8.05363e-10 8.12739e-14 2.37401e-13
2341 1 0.000635 -0.01306 -0.0342826 6.83939e-07 -7.21012e-11 -7.28009e-11 -4.07712e-11 5.96034e-14 2.51823e-13
2510 1 0.000635 -0.0108605 -0.0342818 -1.69349e-06 -7.34452e-11 -7.06072e-11 -8.8208e-10 1.22591e-13 2.62058e-13
2681 1 0.000635 -0.00866096 -0.0342812 -1.61836e-05 -7.04324e-11 6.09191e-12 7.7625e-10 1.07646e-13 2.56668e-13
2766 1 0.000635 -0.007561 -0.0349159 -8.90826e-06 -5.40292e-11 7.51287e-11 2.53814e-09 7.27257e-14 2.37958e-13
2852 1 0.000635 -0.00646156 -0.0342811 -4.1324e-05 -7.12563e-11 4.27516e-11 8.97379e-10 4.29896e-14 2.37187e-13
2937 1 0.000635 -0.00536161 -0.0349158 -3.56881e-05 -7.78654e-11 5.38432e-11 6.02363e-10 3.34677e-14 2.22685e-13
3024 1 0.000635 -0.0042622 -0.034281 -7.01765e-05 -6.24671e-11 1.03847e-10 1.6617e-09 5.06649e-14 2.15979e-13
3110 1 0.000635 -0.0031622 -0.0349156 -6.08541e-05 -6.47542e-11 1.11454e-10 1.4751e-09 7.85632e-14 2.10965e-13
3197 1 0.000635 -0.00206275 -0.0342808 -9.23144e-05 -7.14611e-11 9.25909e-11 7.64171e-10 1.04026e-13 2.00964e-13
3283 1 0.000635 -0.000962692 -0.0349151 -7.50499e-05 -7.58676e-11 8.24217e-11 -7.79567e-11 1.27688e-13 2.07294e-13
3370 1 0.000635 0.000136787 -0.0342802 -0.000101333 -6.2132e-11 8.66362e-11 3.47141e-10 1.47682e-13 1.96934e-13
3456 1 0.000635 0.00123687 -0.0349142 -7.53176e-05 -6.93224e-11 1.51478e-10 2.257e-09 1.70993e-13 2.08393e-13
3543 1 0.000635 0.00233634 -0.034279 -9.49093e-05 -6.19802e-11 1.03661e-10 3.35251e-10 2.24917e-13 2.19119e-13
3629 1 0.000635 0.00343638 -0.0349127 -6.00583e-05 -7.12817e-11 1.52069e-10 8.90458e-10 7.13734e-13 2.31612e-13
3716 1 0.000635 0.00453586 -0.0342775 -7.93432e-05 -4.38206e-11 1.65367e-10 2.49917e-10 7.52779e-13 2.64325e-13
3802 1 0.000635 0.00563591 -0.0349113 -4.73782e-05 -2.16712e-11 1.24368e-10 2.06913e-10 7.50494e-13 1.71364e-13
3888 1 0.000635 0.00673541 -0.0342762 -6.82197e-05 -2.74285e-11 1.14448e-10 1.57903e-10 5.07276e-13 1.68833e-13
3973 1 0.000635 0.00783545 -0.0349099 -3.35792e-05 -2.26479e-11 3.75033e-11 -1.47786e-09 8.19631e-13 1.75508e-13
4059 1 0.000635 0.00893493 -0.0342746 -4.74499e-05 -2.8026e-11 8.82756e-11 3.79409e-10 1.05099e-12 1.75216e-13
4144 1 0.000635 0.0100349 -0.0349082 -8.67204e-06 -2.17715e-11 7.14799e-11 2.14593e-11 1.16587e-12 1.19106e-13
4230 1 0.000635 0.0111339 -0.034272 4.98175e-06 6.84164e-11 4.86691e-13 -2.79289e-09 1.54896e-12 9.5973e-14
1926 1 0.000635 -0.0185591 -0.0336496 4.0512e-06 -4.5154e-11 -1.4992e-10 3.59389e-10 6.97482e-14 2.32566e-13
2091 1 0.000635 -0.0163596 -0.033649 -6.71792e-06 -6.52041e-11 -1.63979e-10 -2.24077e-09 1.02961e-13 2.57277e-13
2257 1 0.000635 -0.01416 -0.0336482 -1.3859e-05 -7.14646e-11 -9.89685e-11 -7.88417e-10 7.43011e-14 2.67078e-13
2426 1 0.000635 -0.0119605 -0.0336474 -1.65127e-05 -6.79831e-11 -5.68833e-11 2.47929e-10 8.48105e-14 2.72946e-13
2596 1 0.000635 -0.00976094 -0.0336467 -2.53999e-05 -6.3239e-11 2.20899e-11 1.75558e-09 1.29899e-13 2.74336e-13
2767 1 0.000635 -0.0075615 -0.0336464 -4.68108e-05 -6.03132e-11 4.89867e-11 1.65621e-09 7.04043e-14 2.54486e-13
2938 1 0.000635 -0.00536215 -0.0336464 -7.63611e-05 -6.1167e-11 8.53078e-11 1.59286e-09 3.32119e-14 2.25667e-13
3111 1 0.000635 -0.00316278 -0.0336463 -0.000104733 -6.07149e-11 1.11965e-10 1.5366e-09 8.27442e-14 1.9896e-13
3284 1 0.000635 -0.000963292 -0.033646 -0.000122656 -7.12673e-11 6.84728e-11 -8.98846e-11 1.31429e-13 1.84265e-13
3457 1 0.000635 0.00123627 -0.0336452 -0.000125822 -5.84399e-11 4.6572e-11 -6.78766e-10 1.68639e-13 1.91442e-13
3630 1 0.000635 0.00343583 -0.0336439 -0.000115406 -6.02811e-11 1.37352e-10 6.30186e-10 2.44124e-13 2.40398e-13
3803 1 0.000635 0.00563537 -0.0336425 -0.000102825 -1.99906e-11 2.75028e-11 -1.93829e-09 3.54276e-13 1.67845e-13
3974 1 0.000635 0.00783491 -0.033641 -8.47924e-05 -3.3677e-11 1.27756e-10 8.72531e-10 9.21991e-13 1.5689e-13
4145 1 0.000635 0.0100342 -0.0336387 -4.60217e-05 -7.04227e-12 5.20297e-11 -6.55103e-10 1.608e-12 1.49342e-13
1765 1 0.000635 -0.020759 -0.0323803 -1.68269e-06 -3.77162e-11 -1.37817e-10 -1.16199e-10 1.13763e-13 2.32552e-13
1845 1 0.000635 -0.0196591 -0.033015 7.45845e-07 -4.30201e-11 -1.5634e-10 -5.51156e-10 1.12135e-13 2.40665e-13
1927 1 0.000635 -0.0185595 -0.0323797 -1.3765e-05 -2.66244e-11 -1.25016e-10 2.29719e-09 3.47877e-13 3.13277e-13
2009 1 0.000635 -0.0174595 -0.0330144 -1.14626e-05 -3.75955e-11 -1.15354e-10 1.11548e-09 1.72169e-13 2.81705e-13
2092 1 0.000635 -0.01636 -0.0323792 -3.15561e-05 -6.84826e-11 -1.5163e-10 -2.0338e-09 1.674e-13 3.07525e-13
2174 1 0.000635 -0.01526 -0.0330138 -2.50359e-05 -6.51822e-11 -1.14728e-10 -8.22257e-10 1.16995e-13 2.8618e-13
2258 1 0.000635 -0.0141605 -0.0323786 -4.47806e-05 -5.64616e-11 -3.66773e-11 1.46272e-09 7.3389e-14 2.94442e-13
2342 1 0.000635 -0.0130605 -0.033013 -3.15631e-05 -6.7999e-11 -4.86184e-11 6.46383e-10 5.81044e-14 2.82835e-13
2427 1 0.000635 -0.011961 -0.0323778 -5.12537e-05 -6.94261e-11 -5.14065e-11 2.93462e-10 6.20176e-14 2.91107e-13
2511 1 0.000635 -0.0108609 -0.0330122 -3.72912e-05 -6.31095e-11 2.62073e-11 2.51117e-09 1.05374e-13 2.87391e-13
2597 1 0.000635 -0.00976144 -0.0323772 -6.24756e-05 -5.33174e-11 4.25365e-11 2.37331e-09 1.09528e-13 2.87696e-13
2682 1 0.000635 -0.00866146 -0.0330117 -5.35154e-05 -5.63105e-11 4.04514e-11 1.77536e-09 9.70483e-14 2.72912e-13
2768 1 0.000635 -0.00756202 -0.0323769 -8.57479e-05 -5.39988e-11 5.78129e-11 1.95466e-09 6.75858e-14 2.57774e-13
2853 1 0.000635 -0.00646209 -0.0330116 -8.09962e-05 -7.46746e-11 3.06508e-11 5.94395e-10 4.05351e-14 2.40115e-13
2939 1 0.000635 -0.0053627 -0.032377 -0.000117706 -7.38272e-11 2.94363e-11 2.09208e-10 3.03146e-14 2.14902e-13
3025 1 0.000635 -0.00426276 -0.0330117 -0.000112727 -6.19915e-11 7.58945e-11 9.96727e-10 4.92564e-14 2.0364e-13
3112 1 0.000635 -0.00316336 -0.0323771 -0.000149357 -6.60442e-11 7.15168e-11 5.49144e-10 8.0642e-14 1.74601e-13
3198 1 0.000635 -0.00206335 -0.0330116 -0.000138632 -5.92421e-11 1.14333e-10 1.46748e-09 1.17296e-13 1.75228e-13
3285 1 0.000635 -0.000963898 -0.0323769 -0.00017146 -5.75508e-11 1.17034e-10 1.28629e-09 1.4794e-13 1.51201e-13
3371 1 0.000635 0.000136186 -0.0330111 -0.000151532 -6.19248e-11 9.78423e-11 6.81055e-10 1.59576e-13 1.66234e-13
3458 1 0.000635 0.00123568 -0.0323763 -0.00017922 -5.93531e-11 1.54947e-10 1.90414e-09 1.52684e-13 1.60634e-13
3544 1 0.000635 0.00233577 -0.0330102 -0.000149659 -5.73812e-11 1.30018e-10 9.63095e-10 1.35352e-13 1.98038e-13
3631 1 0.000635 0.00343528 -0.0323752 -0.000174245 -5.24962e-11 1.02926e-10 1.77902e-11 1.1464e-13 1.97906e-13
3717 1 0.000635 0.00453534 -0.0330089 -0.000138905 -2.91776e-11 4.50896e-11 -1.59058e-09 1.35336e-13 2.09368e-13
3804 1 0.000635 0.00563486 -0.0323739 -0.000161459 -3.90616e-11 1.61053e-10 1.21392e-09 3.44958e-13 1.40678e-13
3889 1 0.000635 0.0067349 -0.0330074 -0.000123277 -3.02276e-11 1.3497e-10 6.60839e-10 5.40469e-13 1.32288e-13
3975 1 0.000635 0.00783437 -0.032372 -0.000135626 -1.36333e-11 7.38553e-11 -5.65981e-10 1.02424e-12 1.44828e-13
4060 1 0.000635 0.00893432 -0.0330054 -9.1846e-05 -2.20697e-11 7.02318e-11 -3.07665e-10 1.28524e-12 1.65122e-13
4146 1 0.000635 0.0100334 -0.0323693 -8.15942e-05 -4.09604e-11 7.37949e-11 1.01417e-10 1.72105e-12 1.86462e-13
4231 1 0.000635 0.011133 -0.0330023 -2.52217e-05 2.35603e-11 3.40456e-11 -1.3782e-09 1.73594e-12 1.42943e-13
4316 1 0.000635 0.012231 -0.0323655 1.49071e-05 -3.48694e-11 5.72362e-11 -1.91314e-10 1.44999e-12 1.41824e-13
1686 1 0.000635 -0.0218589 -0.0317456 -4.29842e-07 -1.15718e-12 -1.00362e-10 1.30379e-09 1.47674e-13 2.29527e-13
1766 1 0.000635 -0.0207594 -0.0311105 -1.95951e-05 3.53451e-12 -5.82516e-11 3.68696e-09 2.41162e-13 3.12106e-13
1846 1 0.000635 -0.0196594 -0.0317451 -1.6967e-05 -3.5611e-11 -1.12921e-10 2.28318e-09 3.66511e-13 3.14869e-13
1928 1 0.000635 -0.0185598 -0.0311099 -3.3939e-05 -1.78559e-10 -4.46035e-10 -1.52765e-08 5.33183e-13 3.47467e-13
2010 1 0.000635 -0.0174599 -0.0317445 -3.34406e-05 -2.74427e-11 -1.02012e-10 8.49026e-10 3.16822e-13 3.26824e-13
2093 1 0.000635 -0.0163604 -0.0311095 -5.98651e-05 -6.13031e-11 -1.28739e-10 -1.23649e-09 1.74989e-13 3.31864e-13
2175 1 0.000635 -0.0152605 -0.0317441 -5.44059e-05 -5.95315e-11 -9.71967e-11 -2.61311e-10 9.97286e-14 3.09665e-13
2259 1 0.000635 -0.014161 -0.031109 -7.77177e-05 -5.74901e-11 -6.46258e-11 2.83527e-10 5.09015e-14 2.95634e-13
2343 1 0.000635 -0.013061 -0.0317434 -6.538e-05 -5.87333e-11 -2.44487e-11 1.54057e-09 4.269e-14 2.92496e-13
2428 1 0.000635 -0.0119615 -0.0311082 -8.73581e-05 -7.07079e-11 -9.89731e-11 -1.43728e-09 4.4183e-14 2.88319e-13
2512 1 0.000635 -0.0108614 -0.0317427 -7.40432e-05 -6.87327e-11 -5.03555e-11 -8.59565e-11 8.10857e-14 2.92337e-13
2598 1 0.000635 -0.00976195 -0.0311077 -0.000100667 -7.24205e-11 -5.84543e-11 -8.61698e-10 9.69444e-14 2.82865e-13
2683 1 0.000635 -0.00866197 -0.0317423 -9.19963e-05 -6.62281e-11 -4.55637e-12 4.30116e-10 9.49117e-14 2.74217e-13
2769 1 0.000635 -0.00756255 -0.0311075 -0.00012558 -5.16001e-11 4.10051e-11 1.41532e-09 6.83915e-14 2.49008e-13
2854 1 0.000635 -0.00646262 -0.0317422 -0.000121437 -5.06513e-11 5.39005e-11 1.45819e-09 3.99713e-14 2.31225e-13
2940 1 0.000635 -0.00536325 -0.0311076 -0.000159646 -8.99268e-11 -1.78608e-11 -1.19809e-09 2.75479e-14 1.97272e-13
3026 1 0.000635 -0.00426333 -0.0317424 -0.000155825 -8.6644e-11 8.35968e-12 -8.25618e-10 4.2682e-14 1.82511e-13
3113 1 0.000635 -0.00316395 -0.0311078 -0.000194411 -1.09125e-10 -5.21664e-11 -2.7469e-09 7.13111e-14 1.50036e-13
3199 1 0.000635 -0.00206395 -0.0317425 -0.000185532 -7.40543e-11 6.35529e-11 3.90514e-11 1.16895e-13 1.45805e-13
3286 1 0.000635 -0.000964515 -0.0311078 -0.000220762 -5.40784e-11 1.17384e-10 1.45923e-09 1.45221e-13 1.28063e-13
3372 1 0.000635 0.000135574 -0.0317422 -0.000203017 -5.43932e-11 1.15584e-10 1.13394e-09 1.61769e-13 1.37691e-13
3459 1 0.000635 0.00123507 -0.0311074 -0.000233409 -5.29922e-11 8.17627e-11 2.72515e-10 1.58654e-13 1.501e-13
3545 1 0.000635 0.00233518 -0.0317414 -0.000206318 -5.52587e-11 7.48013e-11 -2.37915e-10 1.33258e-13 1.71492e-13
3632 1 0.000635 0.00343471 -0.0311065 -0.000232507 -4.37327e-11 4.54321e-11 -9.89275e-10 2.20602e-13 1.91352e-13
3718 1 0.000635 0.0045348 -0.0317402 -0.000198397 -3.56974e-11 7.6186e-11 -5.62878e-10 2.56559e-13 1.73736e-13
3805 1 0.000635 0.00563433 -0.0311051 -0.000217827 -3.27185e-11 1.03474e-10 2.05834e-10 6.30953e-13 1.69678e-13
3890 1 0.000635 0.00673438 -0.0317386 -0.000177706 -2.77494e-11 1.33051e-10 6.88564e-10 8.04091e-13 1.42552e-13
3976 1 0.000635 0.00783376 -0.0311029 -0.000181864 4.7075e-11 -2.00083e-11 -3.31221e-09 1.3553e-12 2.06429e-13
4061 1 0.000635 0.00893363 -0.0317361 -0.000133384 2.30712e-11 1.63938e-11 -2.0983e-09 1.55039e-12 2.03255e-13
4147 1 0.000635 0.0100324 -0.0310997 -0.000112531 -7.41824e-11 8.0293e-11 5.46341e-10 1.70753e-12 2.3828e-13
4232 1 0.000635 0.0111318 -0.0317326 -5.14476e-05 -3.69597e-11 6.58708e-11 1.04209e-11 1.66411e-12 1.90937e-13
4317 1 0.000635 0.0122294 -0.0310956 -2.71124e-06 1.35875e-11 4.99406e-11 -9.13949e-10 1.25134e-12 1.63531e-13
1609 1 0.000635 -0.022959 -0.0298408 -4.69109e-06 -4.43478e-11 -1.02959e-10 -1.67318e-09 1.94125e-13 3.18955e-13
1687 1 0.000635 -0.0218592 -0.0304757 -1.62167e-05 6.44015e-13 -8.14516e-11 1.61333e-09 2.29713e-13 3.15526e-13
1767 1 0.000635 -0.0207597 -0.0298406 -4.11551e-05 1.05764e-12 -6.659e-11 1.91779e-09 3.34738e-13 3.7587e-13
1847 1 0.000635 -0.0196598 -0.0304753 -3.99259e-05 -3.55399e-11 -1.12577e-10 -5.32344e-11 3.91144e-13 3.64074e-13
1929 1 0.000635 -0.0185603 -0.0298403 -6.6393e-05 -3.05285e-11 -7.62598e-11 2.07948e-10 3.87854e-13 3.94855e-13
2011 1 0.000635 -0.0174604 -0.0304749 -6.28155e-05 -8.83843e-12 -6.26103e-11 1.11045e-09 3.56341e-13 3.71282e-13
2094 1 0.000635 -0.0163609 -0.0298399 -9.33333e-05 -6.37775e-11 -1.45958e-10 -2.25726e-09 8.56755e-14 3.30813e-13
2176 1 0.000635 -0.015261 -0.0304745 -8.70271e-05 -4.43645e-11 -5.76458e-11 9.76839e-10 6.842e-14 3.05769e-13
2260 1 0.000635 -0.0141615 -0.0298394 -0.000112979 -4.70626e-11 -3.65604e-11 1.04552e-09 3.848e-14 2.77338e-13
2344 1 0.000635 -0.0130615 -0.0304738 -0.000100874 -6.28509e-11 -8.5717e-11 -7.34786e-10 2.81097e-14 2.81371e-13
2429 1 0.000635 -0.011962 -0.0298387 -0.000124729 -7.1671e-11 -1.09569e-10 -1.83146e-09 3.35748e-14 2.7094e-13
2513 1 0.000635 -0.010862 -0.0304732 -0.000111847 -8.34576e-11 -1.32989e-10 -2.87078e-09 6.82881e-14 2.80765e-13
2599 1 0.000635 -0.00976249 -0.0298382 -0.000139824 -8.39503e-11 -1.06349e-10 -2.54151e-09 8.90427e-14 2.66517e-13
2684 1 0.000635 -0.0086625 -0.0304728 -0.000131467 -3.64819e-11 6.23196e-11 2.43098e-09 9.25304e-14 2.62434e-13
2770 1 0.000635 -0.00756309 -0.0298381 -0.000166236 -6.46109e-11 7.5206e-12 2.12039e-10 6.98085e-14 2.33571e-13
2855 1 0.000635 -0.00646316 -0.0304728 -0.000162593 -6.43557e-11 1.8621e-11 4.03273e-10 4.12039e-14 2.15865e-13
2941 1 0.000635 -0.00536382 -0.0298383 -0.000202214 -1.04702e-10 -5.41576e-11 -2.24019e-09 2.60651e-14 1.80969e-13
3027 1 0.000635 -0.0042639 -0.0304731 -0.000199421 -1.08851e-10 -4.90726e-11 -2.42797e-09 3.52455e-14 1.62563e-13
3114 1 0.000635 -0.00316455 -0.0298386 -0.000239876 -9.17122e-11 -2.17902e-11 -1.92064e-09 5.9503e-14 1.37669e-13
3200 1 0.000635 -0.00206456 -0.0304733 -0.000232738 -8.51489e-11 8.1895e-12 -1.20559e-09 1.05779e-13 1.28606e-13
3287 1 0.000635 -0.000965146 -0.0298388 -0.000270169 -5.52321e-11 6.16064e-11 2.06622e-10 1.36721e-13 1.34809e-13
3373 1 0.000635 0.000134946 -0.0304732 -0.000254726 -6.24403e-11 4.38786e-11 -5.22991e-10 1.6161e-13 1.38214e-13
3460 1 0.000635 0.00123443 -0.0298385 -0.000287082 -6.352e-11 -2.01619e-11 -2.11509e-09 1.97568e-13 1.92814e-13
3546 1 0.000635 0.00233458 -0.0304726 -0.000262387 -5.38064e-11 -4.70997e-11 -2.89091e-09 2.07364e-13 1.95333e-13
3633 1 0.000635 0.00343411 -0.0298377 -0.00028827 -3.77367e-11 -1.00093e-10 -4.15731e-09 4.05322e-13 2.63003e-13
3719 1 0.000635 0.00453424 -0.0304715 -0.000255043 -4.55768e-11 8.3114e-11 -1.03204e-10 5.02597e-13 2.18655e-13
3806 1 0.000635 0.00563375 -0.0298362 -0.000269446 -4.54301e-11 8.55614e-11 3.19124e-11 9.57491e-13 2.6893e-13
3891 1 0.000635 0.00673379 -0.0304696 -0.000227307 1.99045e-11 -4.01757e-12 -2.63495e-09 1.14768e-12 2.24768e-13
3977 1 0.000635 0.00783299 -0.0298336 -0.00022189 3.2428e-12 2.58586e-11 -1.67443e-09 1.5509e-12 2.95449e-13
4062 1 0.000635 0.00893277 -0.0304667 -0.000169153 3.36236e-11 1.61103e-11 -2.24316e-09 1.66177e-12 2.71114e-13
4148 1 0.000635 0.0100311 -0.02983 -0.000137563 -7.77731e-12 4.96332e-11 -9.13298e-10 1.56354e-12 2.67047e-13
4233 1 0.000635 0.0111304 -0.0304628 -7.24614e-05 -7.50712e-11 6.90945e-11 6.209e-10 1.44786e-12 2.14492e-13
4318 1 0.000635 0.0122275 -0.0298257 -1.54113e-05 -8.50018e-11 6.24451e-11 7.77622e-10 9.81463e-13 1.51227e-13
1610 1 0.000635 -0.0229591 -0.0285709 -1.67746e-05 -2.35728e-11 -7.93689e-11 -1.12089e-09 3.11864e-13 3.43934e-13
1688 1 0.000635 -0.0218595 -0.0292058 -3.32922e-05 -5.47955e-11 -1.14185e-10 -1.87886e-09 3.14437e-13 3.61233e-13
1768 1 0.000635 -0.0207601 -0.0285709 -6.49872e-05 -1.03346e-11 -7.89734e-11 4.02457e-10 3.12099e-13 3.61955e-13
1848 1 0.000635 -0.0196603 -0.0292056 -6.90287e-05 -6.06415e-12 -6.31153e-11 1.48437e-09 2.86674e-13 3.76643e-13
1930 1 0.000635 -0.0185608 -0.0285707 -0.000100909 -5.77195e-11 -1.38003e-10 -2.10099e-09 1.57067e-13 3.46141e-13
2012 1 0.000635 -0.0174609 -0.0292053 -9.78404e-05 -5.89321e-11 -1.46398e-10 -2.24116e-09 1.32117e-13 3.56525e-13
2095 1 0.000635 -0.0163615 -0.0285704 -0.000129754 -4.94679e-11 -1.09099e-10 -1.24164e-09 6.73559e-14 2.95768e-13
2177 1 0.000635 -0.0152615 -0.0292049 -0.000122648 -4.28459e-11 -6.64841e-11 2.37039e-10 5.49977e-14 2.82954e-13
2261 1 0.000635 -0.014162 -0.0285699 -0.000149981 -3.39869e-11 -6.54658e-12 1.9773e-09 3.44919e-14 2.5018e-13
2345 1 0.000635 -0.013062 -0.0292043 -0.000137922 -5.08137e-11 -4.82793e-11 4.99074e-10 2.14833e-14 2.58698e-13
2430 1 0.000635 -0.0119625 -0.0285693 -0.000163152 -8.01066e-11 -1.42012e-10 -3.06475e-09 2.78786e-14 2.47892e-13
2514 1 0.000635 -0.0108625 -0.0292037 -0.000150665 -7.18036e-11 -8.80309e-11 -1.54155e-09 5.97213e-14 2.60642e-13
2600 1 0.000635 -0.00976304 -0.0285688 -0.000179842 -7.34694e-11 -5.16024e-11 -9.64588e-10 8.29055e-14 2.46998e-13
2685 1 0.000635 -0.00866305 -0.0292034 -0.000171784 -6.60445e-11 -1.56368e-11 -1.86802e-10 8.97738e-14 2.45002e-13
2771 1 0.000635 -0.00756365 -0.0285687 -0.000207667 -1.19378e-10 -1.22637e-10 -3.83146e-09 7.0074e-14 2.19298e-13
2856 1 0.000635 -0.00646373 -0.0292035 -0.00020448 -9.00554e-11 -3.82746e-11 -1.38222e-09 4.32415e-14 2.01478e-13
2942 1 0.000635 -0.0053644 -0.028569 -0.000245446 -1.28634e-10 -9.73385e-11 -3.65221e-09 2.46596e-14 1.74488e-13
3028 1 0.000635 -0.00426449 -0.0292038 -0.000243559 -1.56809e-10 -1.47351e-10 -5.1447e-09 2.89166e-14 1.53807e-13
3115 1 0.000635 -0.00316517 -0.0285694 -0.000285737 -8.44005e-11 -2.72593e-12 -1.20953e-09 4.96573e-14 1.48826e-13
3201 1 0.000635 -0.00206519 -0.0292042 -0.000280175 -6.44896e-11 4.64328e-11 -7.96958e-11 9.3479e-14 1.38449e-13
3288 1 0.000635 -0.000965797 -0.0285697 -0.00031949 -2.81636e-11 1.36819e-10 2.08098e-09 1.36684e-13 1.85322e-13
3374 1 0.000635 0.000134298 -0.0292042 -0.000306108 -6.44167e-11 -2.76998e-12 -1.59411e-09 1.76257e-13 1.88592e-13
3461 1 0.000635 0.00123377 -0.0285696 -0.000339614 -5.46353e-11 -2.65063e-11 -2.19686e-09 2.73992e-13 2.98651e-13
3547 1 0.000635 0.00233394 -0.0292037 -0.000316673 -5.54903e-11 -1.14423e-11 -1.97417e-09 3.32432e-13 2.89662e-13
3634 1 0.000635 0.00343348 -0.0285688 -0.000340845 -4.36524e-11 -1.98468e-11 -2.11485e-09 6.37181e-13 3.97306e-13
3720 1 0.000635 0.00453364 -0.0292026 -0.000307542 -4.17157e-11 -2.32885e-12 -1.87164e-09 7.86911e-13 3.33961e-13
3807 1 0.000635 0.00563308 -0.028567 -0.000315633 -7.13378e-11 8.68487e-11 5.45113e-10 1.2558e-12 3.90778e-13
3892 1 0.000635 0.00673309 -0.0292004 -0.000270839 -2.52427e-11 5.87566e-11 -6.52712e-10 1.41064e-12 3.30819e-13
3978 1 0.000635 0.00783204 -0.0285641 -0.00025539 1.71809e-11 2.7705e-11 -1.76369e-09 1.62333e-12 3.55489e-13
4063 1 0.000635 0.00893168 -0.0291971 -0.000198467 -2.86153e-11 6.22907e-11 -3.75598e-10 1.61758e-12 3.12646e-13
4149 1 0.000635 0.0100296 -0.0285602 -0.000156603 5.92342e-11 3.64766e-11 -1.87182e-09 1.3322e-12 2.51284e-13
4234 1 0.000635 0.0111287 -0.0291929 -8.79936e-05 2.39558e-11 4.51444e-11 -1.07804e-09 1.16909e-12 1.98456e-13
4319 1 0.000635 0.0122253 -0.0285558 -2.34454e-05 -2.54797e-11 4.85978e-11 -1.36858e-10 7.003e-13 1.12095e-13
1689 1 0.000635 -0.0218598 -0.027936 -5.18296e-05 1.28903e-11 -5.38631e-11 8.04661e-10 3.27562e-13 3.34727e-13
1849 1 0.000635 -0.0196607 -0.027936 -9.93278e-05 -2.19061e-11 -8.96375e-11 -2.35979e-10 2.19452e-13 3.17755e-13
2013 1 0.000635 -0.0174615 -0.0279358 -0.000134358 -2.24015e-11 -7.84381e-11 -1.43324e-11 1.06301e-13 2.93408e-13
2178 1 0.000635 -0.0152621 -0.0279354 -0.000159849 -2.79713e-11 -3.99656e-11 8.41358e-10 5.69711e-14 2.48001e-13
2346 1 0.000635 -0.0130626 -0.0279348 -0.000176006 -6.46716e-11 -1.16807e-10 -2.16976e-09 1.93233e-14 2.33391e-13
2515 1 0.000635 -0.0108631 -0.0279343 -0.00019028 -8.11452e-11 -1.04404e-10 -2.09261e-09 5.36765e-14 2.39572e-13
2686 1 0.000635 -0.00866361 -0.027934 -0.000212865 -7.22074e-11 -2.77089e-11 -7.30314e-10 8.58915e-14 2.29946e-13
2857 1 0.000635 -0.00646431 -0.0279341 -0.000247091 -7.64684e-11 -1.15501e-11 -8.5883e-10 4.33155e-14 1.95827e-13
3029 1 0.000635 -0.0042651 -0.0279345 -0.00028825 -1.19192e-10 -6.93236e-11 -3.07265e-09 2.37133e-14 1.65133e-13
3202 1 0.000635 -0.00206583 -0.027935 -0.00032772 -7.08394e-11 2.80508e-11 -5.24814e-10 8.73567e-14 1.85573e-13
3375 1 0.000635 0.000133626 -0.0279352 -0.000356846 -3.60995e-11 9.53452e-11 1.00135e-09 2.16145e-13 2.9449e-13
3548 1 0.000635 0.00233328 -0.0279348 -0.000368692 -5.07142e-11 -5.90531e-11 -3.07757e-09 5.07733e-13 4.40717e-13
3721 1 0.000635 0.00453298 -0.0279335 -0.000355598 -5.04053e-11 1.24932e-11 -1.29285e-09 1.09206e-12 4.7325e-13
3893 1 0.000635 0.00673224 -0.027931 -0.000308224 -4.31649e-11 5.15744e-11 -4.63827e-10 1.59494e-12 4.10612e-13
4064 1 0.000635 0.00893033 -0.0279273 -0.000221478 1.39169e-11 3.91507e-11 -1.16965e-09 1.47499e-12 3.06864e-13
4235 1 0.000635 0.0111267 -0.027923 -9.83829e-05 5.26312e-11 3.98422e-11 -1.38119e-09 8.68708e-13 1.51602e-13
1534 1 0.000635 -0.0240588 -0.0266659 -7.86529e-06 1.93882e-10 6.61991e-11 7.17038e-09 1.02147e-12 3.85885e-13
1611 1 0.000635 -0.0229593 -0.0273009 -3.12032e-05 1.12736e-11 -4.1425e-11 4.48027e-10 6.48077e-13 3.1399e-13
1690 1 0.000635 -0.0218601 -0.0266661 -7.32368e-05 6.55988e-11 -1.23305e-11 2.6781e-09 2.70679e-13 3.23154e-13
1769 1 0.000635 -0.0207605 -0.0273011 -9.01015e-05 2.44933e-11 -4.66356e-11 1.55545e-09 2.24598e-13 3.06627e-13
1850 1 0.000635 -0.0196612 -0.0266663 -0.000129554 1.49934e-11 -4.47732e-11 1.36971e-09 1.72482e-13 2.51721e-13
1931 1 0.000635 -0.0185614 -0.0273011 -0.000135066 -3.27094e-11 -1.01412e-10 -9.09664e-10 1.63131e-13 2.68131e-13
2014 1 0.000635 -0.017462 -0.0266663 -0.000170232 -1.15687e-11 -6.07462e-11 5.05401e-10 1.40689e-13 2.26911e-13
2096 1 0.000635 -0.0163621 -0.0273009 -0.000166895 -4.16264e-11 -1.07277e-10 -1.21428e-09 9.08599e-14 2.43658e-13
2179 1 0.000635 -0.0152626 -0.0266659 -0.000197279 -3.88822e-11 -9.36496e-11 -1.14353e-09 7.26016e-14 2.11465e-13
2262 1 0.000635 -0.0141626 -0.0273004 -0.000187801 -4.03315e-11 -5.0576e-11 2.28667e-10 3.67546e-14 2.21499e-13
2347 1 0.000635 -0.0130631 -0.0266654 -0.000214575 -4.87147e-11 -6.31964e-11 -6.73621e-10 2.03575e-14 2.10883e-13
2431 1 0.000635 -0.0119631 -0.0272998 -0.000202283 -8.52114e-11 -1.46583e-10 -3.46473e-09 2.53312e-14 2.2608e-13
2516 1 0.000635 -0.0108636 -0.0266648 -0.00023041 -7.47938e-11 -6.31538e-11 -1.07655e-09 4.8929e-14 2.22969e-13
2601 1 0.000635 -0.00976361 -0.0272994 -0.000220506 -8.65632e-11 -8.50872e-11 -2.19157e-09 7.63218e-14 2.30875e-13
2687 1 0.000635 -0.0086642 -0.0266646 -0.000254492 -4.32183e-11 4.62694e-11 1.44798e-09 8.0576e-14 2.22476e-13
2772 1 0.000635 -0.00756424 -0.0272993 -0.000249801 -3.70962e-11 6.50591e-11 1.69654e-09 6.80603e-14 2.13226e-13
2858 1 0.000635 -0.00646491 -0.0266648 -0.000290225 -1.04421e-11 1.22461e-10 2.95564e-09 4.14231e-14 2.04554e-13
2943 1 0.000635 -0.005365 -0.0272997 -0.00028927 -7.74664e-11 -5.06043e-12 -9.03796e-10 2.25151e-14 1.8504e-13
3030 1 0.000635 -0.00426573 -0.0266653 -0.000333276 -2.24257e-11 1.02812e-10 1.90233e-09 1.99149e-14 2.02477e-13
3116 1 0.000635 -0.00316581 -0.0273002 -0.00033187 -4.04398e-11 8.23136e-11 1.01607e-09 4.32837e-14 1.91232e-13
3203 1 0.000635 -0.0020665 -0.0266658 -0.00037515 -4.39957e-11 6.99448e-11 6.40716e-10 8.9975e-14 2.73282e-13
3289 1 0.000635 -0.00096647 -0.0273006 -0.000368476 -4.07831e-11 9.30895e-11 1.05153e-09 1.52832e-13 2.83846e-13
3376 1 0.000635 0.000132934 -0.0266661 -0.000406616 -3.99205e-11 7.14298e-11 3.78863e-10 2.87605e-13 4.49161e-13
3462 1 0.000635 0.00123309 -0.0273006 -0.000390665 -4.2242e-11 5.48843e-11 -1.74216e-10 3.92714e-13 4.5715e-13
3549 1 0.000635 0.0023326 -0.0266657 -0.000418244 -4.97484e-11 -1.06593e-10 -4.39894e-09 7.42906e-13 6.2239e-13
3635 1 0.000635 0.00343281 -0.0272997 -0.000390012 -4.88495e-11 -5.03227e-11 -2.77816e-09 9.21112e-13 5.58175e-13
3722 1 0.000635 0.00453226 -0.0266642 -0.000399236 -9.48657e-11 7.38265e-11 8.6191e-10 1.42359e-12 6.00014e-13
3808 1 0.000635 0.00563231 -0.0272977 -0.000356431 -4.50275e-11 2.48149e-11 -1.04092e-09 1.53098e-12 4.92261e-13
3894 1 0.000635 0.00673124 -0.0266614 -0.000339714 -1.1226e-10 8.85079e-11 1.44806e-09 1.70405e-12 4.48867e-13
3979 1 0.000635 0.00783087 -0.0272944 -0.000282634 -1.24363e-10 9.25768e-11 1.82773e-09 1.60022e-12 3.68988e-13
4065 1 0.000635 0.00892871 -0.0266575 -0.000238608 -1.11889e-10 7.34319e-11 1.4657e-09 1.25409e-12 2.662e-13
4150 1 0.000635 0.0100278 -0.0272903 -0.000170065 -4.87336e-11 5.61575e-11 3.05049e-10 1.05262e-12 2.02297e-13
4236 1 0.000635 0.0111244 -0.0266531 -0.000104294 6.21539e-11 3.95968e-11 -1.20316e-09 5.73551e-13 9.8288e-14
4320 1 0.000635 0.0122229 -0.0272858 -2.74867e-05 3.6046e-11 3.5668e-11 -8.19701e-10 4.39262e-13 6.65349e-14
1535 1 0.000635 -0.0240593 -0.0253962 -3.61515e-05 8.6033e-11 2.48429e-12 2.39635e-09 6.31357e-13 4.28285e-13
1612 1 0.000635 -0.0229596 -0.0260311 -5.27386e-05 7.23077e-11 1.0153e-12 2.84131e-09 6.05587e-13 4.1291e-13
1691 1 0.000635 -0.0218606 -0.0253964 -9.97558e-05 3.39342e-11 -2.20633e-11 1.58433e-09 1.3414e-13 3.6003e-13
1770 1 0.000635 -0.020761 -0.0260314 -0.000117048 2.47779e-11 -3.53286e-11 1.45695e-09 1.36533e-13 2.77846e-13
1851 1 0.000635 -0.0196618 -0.0253967 -0.00015999 3.24808e-11 -1.64864e-11 2.0315e-09 1.34036e-13 2.21429e-13
1932 1 0.000635 -0.018562 -0.0260316 -0.000168271 3.21504e-11 -3.33598e-12 2.57631e-09 1.64572e-13 2.08694e-13
2015 1 0.000635 -0.0174626 -0.0253967 -0.000204854 3.69855e-11 3.13453e-11 3.59075e-09 1.58184e-13 1.83618e-13
2097 1 0.000635 -0.0163627 -0.0260314 -0.000203383 -4.8916e-12 -3.26823e-11 1.12208e-09 1.20942e-13 1.98388e-13
2180 1 0.000635 -0.0152632 -0.0253964 -0.000234096 -1.51246e-11 -1.68986e-11 1.34003e-09 8.72247e-14 1.83728e-13
2263 1 0.000635 -0.0141632 -0.0260309 -0.000225645 -2.84283e-11 -1.90163e-11 8.35745e-10 4.38149e-14 1.96779e-13
2348 1 0.000635 -0.0130637 -0.0253959 -0.000253054 -2.48663e-11 2.03701e-11 1.52537e-09 2.36348e-14 1.94445e-13
2432 1 0.000635 -0.0119637 -0.0260303 -0.000241712 -4.60615e-11 -9.02561e-12 7.45759e-10 2.48966e-14 2.09542e-13
2517 1 0.000635 -0.0108642 -0.0253954 -0.000270681 -4.94106e-11 -1.61569e-11 1.80554e-10 4.60198e-14 2.1357e-13
2602 1 0.000635 -0.0097642 -0.0260299 -0.00026155 -5.639e-11 2.30595e-12 5.39209e-10 7.06815e-14 2.22126e-13
2688 1 0.000635 -0.0086648 -0.0253952 -0.000296342 -7.41352e-11 -2.7628e-11 -8.80974e-10 7.56604e-14 2.25443e-13
2773 1 0.000635 -0.00756484 -0.0260299 -0.000292286 -7.08037e-11 -5.81431e-12 -5.69708e-10 6.48528e-14 2.19088e-13
2859 1 0.000635 -0.00646553 -0.0253954 -0.000333532 -9.35511e-11 -4.02998e-11 -1.98036e-09 3.96871e-14 2.30507e-13
2944 1 0.000635 -0.00536563 -0.0260304 -0.000333379 -3.80947e-11 7.10063e-11 1.2804e-09 2.07198e-14 2.16906e-13
3031 1 0.000635 -0.00426638 -0.025396 -0.000378263 -9.34643e-11 -2.97938e-11 -1.82103e-09 1.79343e-14 2.6762e-13
3117 1 0.000635 -0.00316646 -0.026031 -0.000377969 -2.7934e-11 9.43975e-11 1.41634e-09 4.15414e-14 2.67598e-13
3204 1 0.000635 -0.00206718 -0.0253966 -0.000422113 -6.71073e-11 1.26439e-11 -8.49897e-10 1.03096e-13 3.98982e-13
3290 1 0.000635 -0.000967163 -0.0260315 -0.000416834 -2.69915e-11 1.12662e-10 1.68337e-09 1.8731e-13 4.25918e-13
3377 1 0.000635 0.000132227 -0.025397 -0.000455093 -3.33753e-11 9.16669e-11 1.07255e-09 3.94616e-13 6.39503e-13
3463 1 0.000635 0.00123239 -0.0260315 -0.000439947 -5.42865e-11 -2.40672e-11 -2.20224e-09 5.6449e-13 6.50218e-13
3550 1 0.000635 0.0023319 -0.0253966 -0.000465139 -4.11588e-11 -1.07006e-10 -4.42987e-09 1.04222e-12 8.1099e-13
3636 1 0.000635 0.00343211 -0.0260305 -0.000435717 -7.42113e-11 3.24605e-11 -4.27886e-10 1.25918e-12 7.16064e-13
3723 1 0.000635 0.00453147 -0.0253949 -0.000438429 -8.16084e-11 4.39946e-11 1.34603e-10 1.7599e-12 6.94794e-13
3809 1 0.000635 0.00563143 -0.0260282 -0.000392005 -1.05079e-10 7.65877e-11 1.27173e-09 1.7692e-12 5.5688e-13
3895 1 0.000635 0.00673004 -0.0253917 -0.000365497 -1.19634e-10 8.4953e-11 1.71049e-09 1.70482e-12 4.53449e-13
3980 1 0.000635 0.00782946 -0.0260247 -0.000303908 -1.10383e-10 7.92795e-11 1.48917e-09 1.47454e-12 3.47855e-13
4066 1 0.000635 0.00892682 -0.0253876 -0.000250367 -7.11714e-11 6.03296e-11 9.02623e-10 9.54912e-13 2.18725e-13
4151 1 0.000635 0.0100257 -0.0260204 -0.000178545 -2.006e-11 5.1837e-11 7.78569e-11 7.41566e-13 1.46761e-13
4237 1 0.000635 0.0111219 -0.0253831 -0.000106772 -2.15653e-11 4.01864e-11 2.28249e-10 3.13356e-13 6.41141e-14