ITEM: TIMESTEP
1600000
ITEM: NUMBER OF ATOMS
6793
ITEM: BOX BOUNDS ff ff ff
-8.9999999999999997e-02 8.9999999999999997e-02
-8.9999999999999997e-02 8.9999999999999997e-02
-4.0000000000000001e-02 4.0000000000000001e-02
ITEM: ATOMS id type radius x y z fx fy fz c_bendingE c_stretchingE
3214 1 0.000635 -0.0020727 -0.0127 -0.01728 -9.97801e-05 2.71518e-05 -7.73738e-06 4.43015e-09 8.2454e-11
3300 1 0.000635 -0.000973441 -0.0133354 -0.0172564 -2.2823e-09 -3.64954e-09 -3.49759e-08 3.43114e-09 5.43693e-11
3387 1 0.000635 0.000127 -0.0127 -0.01728 -5.9862e-05 -5.49062e-05 1.10764e-06 3.51625e-10 1.97893e-11
3473 1 0.000635 0.00122569 -0.0133339 -0.0172243 -1.59615e-09 8.99279e-10 6.85751e-09 4.42928e-10 1.57308e-10
3560 1 0.000635 0.0023267 -0.0127 -0.01728 7.13344e-05 -0.000238765 0.000116206 5.6862e-10 2.60601e-10
3042 1 0.000635 -0.00427241 -0.01143 -0.01728 4.39942e-07 6.27918e-05 -1.73551e-05 2.53263e-09 1.89362e-11
3128 1 0.000635 -0.00317256 -0.012065 -0.01728 -3.99926e-05 9.34538e-05 -1.99896e-05 3.18981e-09 7.22929e-11
3215 1 0.000635 -0.0020727 -0.01143 -0.01728 3.40742e-08 -6.87296e-08 -3.19463e-06 9.70934e-11 5.17148e-36
3301 1 0.000635 -0.000972852 -0.012065 -0.01728 2.64177e-08 -3.55602e-05 -2.61681e-06 1.02819e-10 5.71444e-12
3388 1 0.000635 0.000127 -0.01143 -0.01728 1.21892e-08 0 -1.13029e-06 2.42085e-11 5.17148e-36
3474 1 0.000635 0.00122685 -0.012065 -0.01728 -2.95826e-08 -9.28675e-06 -5.07043e-06 3.82896e-10 3.62163e-13
3561 1 0.000635 0.0023267 -0.01143 -0.01728 2.48782e-07 -1.50401e-07 -6.74857e-06 4.78858e-10 5.17148e-36
3647 1 0.000635 0.00342656 -0.012065 -0.01728 6.14956e-05 4.61275e-05 -2.34246e-07 4.35017e-10 5.36185e-11
3734 1 0.000635 0.00452641 -0.01143 -0.01728 2.52874e-05 2.07771e-05 3.39552e-06 3.04924e-10 9.60414e-12
2956 1 0.000635 -0.00537226 -0.010795 -0.01728 3.08479e-05 3.79759e-05 -1.51731e-05 2.09504e-09 8.78947e-12
3129 1 0.000635 -0.00317256 -0.010795 -0.01728 -7.80677e-11 -5.77496e-08 -3.13244e-06 9.32813e-11 6.46435e-36
3302 1 0.000635 -0.000972852 -0.010795 -0.01728 5.19135e-09 0 -2.0775e-07 8.16374e-13 5.17148e-36
3475 1 0.000635 0.00122685 -0.010795 -0.01728 1.0244e-08 0 -4.91332e-07 4.56661e-12 5.17148e-36
3648 1 0.000635 0.00342656 -0.010795 -0.01728 1.64299e-07 -1.00737e-07 -5.2185e-06 2.74768e-10 1.0343e-35
3821 1 0.000635 0.00562626 -0.010795 -0.01728 1.2069e-05 1.17652e-05 3.54353e-06 2.21638e-10 2.48159e-12
2786 1 0.000635 -0.00757197 -0.009525 -0.01728 7.66726e-05 3.70515e-06 -1.20882e-05 1.42966e-09 4.43272e-11
2871 1 0.000635 -0.00647211 -0.01016 -0.01728 5.50642e-05 1.87396e-05 -1.33816e-05 1.74803e-09 2.03002e-11
2957 1 0.000635 -0.00537226 -0.009525 -0.01728 -3.71444e-08 -4.23444e-08 -3.10838e-06 9.18581e-11 3.74932e-35
3043 1 0.000635 -0.00427241 -0.01016 -0.01728 -2.14109e-08 -4.89692e-08 -3.11512e-06 9.22509e-11 2.71503e-35
3130 1 0.000635 -0.00317256 -0.009525 -0.01728 2.0671e-17 0 2.16e-11 1.05285e-24 6.46435e-36
3216 1 0.000635 -0.0020727 -0.01016 -0.01728 -6.77626e-21 0 2.16e-11 0 5.17148e-36
3303 1 0.000635 -0.000972852 -0.009525 -0.01728 0 0 2.16e-11 0 5.17148e-36
3389 1 0.000635 0.000127 -0.01016 -0.01728 0 0 2.16e-11 0 5.17148e-36
3476 1 0.000635 0.00122685 -0.009525 -0.01728 0 0 2.16e-11 0 5.17148e-36
3562 1 0.000635 0.0023267 -0.01016 -0.01728 0 0 2.16e-11 0 5.17148e-36
3649 1 0.000635 0.00342656 -0.009525 -0.01728 4.13115e-17 0 2.16e-11 0 1.0343e-35
3735 1 0.000635 0.00452641 -0.01016 -0.01728 1.03816e-07 -7.0329e-08 -4.22063e-06 1.75769e-10 3.10289e-35
3822 1 0.000635 0.00562626 -0.009525 -0.01728 7.65099e-08 -4.60281e-08 -3.50646e-06 1.20767e-10 3.74932e-35
3907 1 0.000635 0.00672611 -0.01016 -0.01728 2.15701e-05 -6.94376e-06 5.99776e-06 1.75518e-10 2.98401e-12
3993 1 0.000635 0.00782597 -0.009525 -0.01728 1.77231e-05 -2.98981e-05 5.02468e-06 4.52277e-10 3.65381e-12
2616 1 0.000635 -0.00977167 -0.008255 -0.01728 -1.92921e-05 -9.54114e-05 1.69283e-05 7.88239e-10 5.21753e-11
2701 1 0.000635 -0.00867182 -0.00889 -0.01728 0.000102303 -8.41363e-06 -1.22264e-05 1.10837e-09 8.56938e-11
2787 1 0.000635 -0.00757197 -0.008255 -0.01728 -5.5767e-08 -3.85721e-08 -3.25013e-06 1.00729e-10 4.0079e-35
2872 1 0.000635 -0.00647211 -0.00889 -0.01728 -4.80663e-08 -3.85702e-08 -3.135e-06 9.34726e-11 3.74932e-35
2958 1 0.000635 -0.00537226 -0.008255 -0.01728 1.44607e-16 -7.15799e-17 2.16e-11 5.26426e-25 4.0079e-35
3044 1 0.000635 -0.00427241 -0.00889 -0.01728 -1.03289e-16 -4.76841e-17 2.16e-11 1.05285e-24 2.71503e-35
3131 1 0.000635 -0.00317256 -0.008255 -0.01728 3.09912e-17 -7.75431e-17 2.16e-11 5.26426e-25 1.87466e-35
3217 1 0.000635 -0.0020727 -0.00889 -0.01728 -3.38813e-21 -4.76866e-17 2.16e-11 0 5.17148e-36
3304 1 0.000635 -0.000972852 -0.008255 -0.01728 0 -7.15833e-17 2.16e-11 0 1.0343e-35
3390 1 0.000635 0.000127 -0.00889 -0.01728 0 -4.76866e-17 2.16e-11 0 5.17148e-36
3477 1 0.000635 0.00122685 -0.008255 -0.01728 0 -7.15833e-17 2.16e-11 0 1.0343e-35
3563 1 0.000635 0.0023267 -0.00889 -0.01728 0 -4.76858e-17 2.16e-11 0 5.17148e-36
3650 1 0.000635 0.00342656 -0.008255 -0.01728 4.13098e-17 -7.15825e-17 2.16e-11 0 1.0343e-35
3736 1 0.000635 0.00452641 -0.00889 -0.01728 4.13115e-17 -4.76841e-17 2.16e-11 0 3.10289e-35
3823 1 0.000635 0.00562626 -0.008255 -0.01728 -1.446e-16 -7.15791e-17 2.16e-11 0 4.0079e-35
3908 1 0.000635 0.00672611 -0.00889 -0.01728 4.64834e-08 -5.0864e-08 -3.09563e-06 9.2644e-11 1.68073e-35
3994 1 0.000635 0.00782597 -0.008255 -0.01728 -1.96032e-08 -1.23451e-07 -4.09272e-06 1.74221e-10 1.0343e-35
4079 1 0.000635 0.00892582 -0.00889 -0.01728 -0.000106638 0.000110283 -3.73475e-05 1.14168e-09 8.51658e-11
4165 1 0.000635 0.0100257 -0.008255 -0.01728 0.000432426 7.3689e-05 0.000130269 1.63264e-09 1.14434e-09
2531 1 0.000635 -0.0108709 -0.00761976 -0.0172355 -1.07285e-09 -6.03228e-09 -1.0528e-08 5.3927e-10 1.64445e-11
2617 1 0.000635 -0.00977167 -0.006985 -0.01728 -6.74294e-06 -3.83822e-06 -2.46196e-06 9.85344e-11 2.65119e-13
2702 1 0.000635 -0.00867182 -0.00762 -0.01728 -7.39441e-08 -2.44366e-08 -3.47709e-06 1.16043e-10 2.9736e-35
2788 1 0.000635 -0.00757197 -0.006985 -0.01728 1.44605e-16 -2.38958e-17 2.16e-11 0 4.0079e-35
2873 1 0.000635 -0.00647211 -0.00762 -0.01728 -1.44609e-16 2.38967e-17 2.16e-11 0 4.0079e-35
2959 1 0.000635 -0.00537226 -0.006985 -0.01728 1.44605e-16 -2.38958e-17 2.16e-11 0 4.0079e-35
3045 1 0.000635 -0.00427241 -0.00762 -0.01728 -1.13623e-16 2.98573e-17 2.16e-11 0 2.90896e-35
3132 1 0.000635 -0.00317256 -0.006985 -0.01728 3.09912e-17 -2.98573e-17 2.16e-11 0 1.87466e-35
3218 1 0.000635 -0.0020727 -0.00762 -0.01728 -1.69407e-21 2.38958e-17 2.16e-11 0 1.0343e-35
3305 1 0.000635 -0.000972852 -0.006985 -0.01728 0 -2.38967e-17 2.16e-11 0 1.0343e-35
3391 1 0.000635 0.000127 -0.00762 -0.01728 0 2.38967e-17 2.16e-11 0 1.0343e-35
3478 1 0.000635 0.00122685 -0.006985 -0.01728 0 -2.38967e-17 2.16e-11 0 1.0343e-35
3564 1 0.000635 0.0023267 -0.00762 -0.01728 0 2.38967e-17 2.16e-11 0 1.0343e-35
3651 1 0.000635 0.00342656 -0.006985 -0.01728 4.13081e-17 -2.38967e-17 2.16e-11 0 1.0343e-35
3737 1 0.000635 0.00452641 -0.00762 -0.01728 4.13217e-17 2.38958e-17 2.16e-11 0 2.06859e-35
3824 1 0.000635 0.00562626 -0.006985 -0.01728 -1.44599e-16 -2.3895e-17 2.16e-11 0 4.0079e-35
3909 1 0.000635 0.00672611 -0.00762 -0.01728 6.19757e-17 2.38958e-17 2.16e-11 0 2.9736e-35
3995 1 0.000635 0.00782597 -0.006985 -0.01728 -6.77626e-21 -2.38967e-17 2.16e-11 0 1.0343e-35
4080 1 0.000635 0.00892582 -0.00762 -0.01728 -9.90699e-08 -2.39085e-07 -7.14394e-06 7.1915e-10 1.0343e-35
4166 1 0.000635 0.0100257 -0.006985 -0.01728 -0.000108829 6.20225e-05 -2.41586e-05 1.27629e-09 7.3693e-11
2448 1 0.000635 -0.0119705 -0.00571571 -0.0172331 4.29242e-09 1.6674e-09 5.18529e-08 3.39134e-10 1.2631e-10
2532 1 0.000635 -0.0108715 -0.00635 -0.01728 -6.44548e-05 -8.19707e-05 7.98652e-06 1.45953e-10 4.1256e-11
2618 1 0.000635 -0.00977167 -0.005715 -0.01728 -4.28803e-09 7.42709e-09 -9.93772e-07 1.87021e-11 6.85221e-35
2703 1 0.000635 -0.00867182 -0.00635 -0.01728 -4.31194e-10 7.4685e-10 -3.92458e-07 2.9119e-12 2.9736e-35
2789 1 0.000635 -0.00757197 -0.005715 -0.01728 1.44602e-16 4.76832e-17 2.16e-11 0 3.74932e-35
2874 1 0.000635 -0.00647211 -0.00635 -0.01728 -1.44609e-16 7.15816e-17 2.16e-11 0 4.0079e-35
2960 1 0.000635 -0.00537226 -0.005715 -0.01728 1.44604e-16 4.76841e-17 2.16e-11 5.26426e-25 3.74932e-35
3046 1 0.000635 -0.00427241 -0.00635 -0.01728 -1.13621e-16 7.75431e-17 2.16e-11 0 2.90896e-35
3133 1 0.000635 -0.00317256 -0.005715 -0.01728 2.0671e-17 4.76858e-17 2.16e-11 5.26426e-25 6.46435e-36
3219 1 0.000635 -0.0020727 -0.00635 -0.01728 -5.0822e-21 7.15842e-17 2.16e-11 0 1.0343e-35
3306 1 0.000635 -0.000972852 -0.005715 -0.01728 0 4.76866e-17 2.16e-11 0 5.17148e-36
3392 1 0.000635 0.000127 -0.00635 -0.01728 0 7.1585e-17 2.16e-11 0 1.0343e-35
3479 1 0.000635 0.00122685 -0.005715 -0.01728 0 4.76866e-17 2.16e-11 0 5.17148e-36
3565 1 0.000635 0.0023267 -0.00635 -0.01728 0 7.15842e-17 2.16e-11 0 1.0343e-35
3652 1 0.000635 0.00342656 -0.005715 -0.01728 4.13098e-17 4.76858e-17 2.16e-11 0 1.0343e-35
3738 1 0.000635 0.00452641 -0.00635 -0.01728 4.13183e-17 7.15816e-17 2.16e-11 0 2.06859e-35
3825 1 0.000635 0.00562626 -0.005715 -0.01728 -1.44597e-16 4.76841e-17 2.16e-11 0 3.74932e-35
3910 1 0.000635 0.00672611 -0.00635 -0.01728 6.19774e-17 7.15825e-17 2.16e-11 0 2.9736e-35
3996 1 0.000635 0.00782597 -0.005715 -0.01728 -6.77626e-21 4.76849e-17 2.16e-11 0 5.17148e-36
4081 1 0.000635 0.00892582 -0.00635 -0.01728 -2.17288e-08 -3.76353e-08 -1.48131e-06 4.16867e-11 1.0343e-35
4167 1 0.000635 0.0100257 -0.005715 -0.01728 -6.77693e-08 -1.1738e-07 -4.16397e-06 3.40216e-10 6.85221e-35
4252 1 0.000635 0.0111255 -0.00635 -0.01728 -0.000393246 -2.83292e-06 -0.00010336 1.83918e-09 5.12139e-10
4337 1 0.000635 0.0122208 -0.00571799 -0.0172188 6.60075e-09 -6.38649e-09 -6.13122e-08 2.6662e-09 1.10958e-09
2533 1 0.000635 -0.0108715 -0.00508 -0.01728 -2.1346e-05 -1.24856e-05 -3.75178e-06 2.71435e-10 2.71451e-12
2704 1 0.000635 -0.00867182 -0.00508 -0.01728 -6.19774e-17 -2.3845e-17 2.16e-11 0 1.42216e-35
2875 1 0.000635 -0.00647211 -0.00508 -0.01728 -1.44605e-16 -2.38442e-17 2.16e-11 0 3.49075e-35
3047 1 0.000635 -0.00427241 -0.00508 -0.01728 -1.03287e-16 -2.38433e-17 2.16e-11 1.57928e-24 2.45645e-35
3220 1 0.000635 -0.0020727 -0.00508 -0.01728 -3.38813e-21 -2.38442e-17 2.16e-11 0 2.58574e-36
3393 1 0.000635 0.000127 -0.00508 -0.01728 0 -2.38442e-17 2.16e-11 0 2.58574e-36
3566 1 0.000635 0.0023267 -0.00508 -0.01728 -3.38813e-21 -2.38459e-17 2.16e-11 0 2.58574e-36
3739 1 0.000635 0.00452641 -0.00508 -0.01728 4.13081e-17 -2.38433e-17 2.16e-11 5.26426e-25 2.84431e-35
3911 1 0.000635 0.00672611 -0.00508 -0.01728 6.19859e-17 -2.38442e-17 2.16e-11 0 1.42216e-35
4082 1 0.000635 0.00892582 -0.00508 -0.01728 -8.47033e-21 -2.3845e-17 2.16e-11 0 2.58574e-36
4253 1 0.000635 0.0111255 -0.00508 -0.01728 -4.5926e-05 2.61144e-05 -1.24203e-05 1.24168e-09 1.29657e-11
2449 1 0.000635 -0.0119714 -0.004445 -0.01728 -0.000168825 -0.000122992 6.81101e-05 4.20529e-10 1.43119e-10
2534 1 0.000635 -0.0108715 -0.00381 -0.01728 -2.09198e-07 -1.06968e-07 -6.03342e-06 3.5292e-10 4.65433e-35
2619 1 0.000635 -0.00977167 -0.004445 -0.01728 -4.69614e-09 8.13396e-09 -4.13317e-07 3.23141e-12 6.01185e-35
2705 1 0.000635 -0.00867182 -0.00381 -0.01728 -8.2623e-17 0 2.16e-11 1.05285e-24 2.06859e-35
2790 1 0.000635 -0.00757197 -0.004445 -0.01728 1.44602e-16 -5.96282e-17 2.16e-11 5.26426e-25 3.74932e-35
2876 1 0.000635 -0.00647211 -0.00381 -0.01728 -1.44605e-16 0 2.16e-11 0 3.23218e-35
2961 1 0.000635 -0.00537226 -0.004445 -0.01728 1.44604e-16 -5.9629e-17 2.16e-11 5.26426e-25 3.74932e-35
3048 1 0.000635 -0.00427241 -0.00381 -0.01728 -1.03291e-16 0 2.16e-11 0 1.68073e-35
3134 1 0.000635 -0.00317256 -0.004445 -0.01728 3.09963e-17 -5.36693e-17 2.16e-11 1.57928e-24 8.40366e-36
3221 1 0.000635 -0.0020727 -0.00381 -0.01728 -6.77626e-21 0 2.16e-11 2.10571e-24 0
3307 1 0.000635 -0.000972852 -0.004445 -0.01728 0 -4.77053e-17 2.16e-11 1.05285e-24 5.17148e-36
3394 1 0.000635 0.000127 -0.00381 -0.01728 0 0 2.16e-11 1.05285e-24 0
3480 1 0.000635 0.00122685 -0.004445 -0.01728 0 -4.77053e-17 2.16e-11 1.05285e-24 5.17148e-36
3567 1 0.000635 0.0023267 -0.00381 -0.01728 0 0 2.16e-11 2.10571e-24 0
3653 1 0.000635 0.00342656 -0.004445 -0.01728 3.09811e-17 -5.36701e-17 2.16e-11 1.05285e-24 8.40366e-36
3740 1 0.000635 0.00452641 -0.00381 -0.01728 4.13217e-17 7.70372e-34 2.16e-11 0 1.29287e-35
3826 1 0.000635 0.00562626 -0.004445 -0.01728 -1.44597e-16 -5.9629e-17 2.16e-11 5.26426e-25 3.74932e-35
3912 1 0.000635 0.00672611 -0.00381 -0.01728 8.26298e-17 0 2.16e-11 1.05285e-24 2.06859e-35
3997 1 0.000635 0.00782597 -0.004445 -0.01728 -3.38813e-21 -4.77061e-17 2.16e-11 1.05285e-24 5.17148e-36
4083 1 0.000635 0.00892582 -0.00381 -0.01728 -6.77626e-21 0 2.16e-11 1.05285e-24 0
4168 1 0.000635 0.0100257 -0.004445 -0.01728 2.14808e-08 3.72058e-08 -5.40556e-07 5.56048e-12 6.01185e-35
4254 1 0.000635 0.0111255 -0.00381 -0.01728 1.40976e-07 -3.53113e-08 -4.81508e-06 2.22552e-10 4.65433e-35
4338 1 0.000635 0.0122254 -0.004445 -0.01728 0.000143955 -0.000234607 4.39853e-05 2.81592e-09 3.42147e-10
2450 1 0.000635 -0.0119714 -0.003175 -0.01728 3.44697e-05 6.86206e-05 -2.55266e-06 4.77364e-10 4.6585e-11
2535 1 0.000635 -0.0108715 -0.00254 -0.01728 -2.5546e-07 -1.71361e-08 -6.31416e-06 3.87091e-10 6.33506e-35
2620 1 0.000635 -0.00977167 -0.003175 -0.01728 -1.3427e-16 4.1748e-17 2.16e-11 5.26426e-25 5.81792e-35
2706 1 0.000635 -0.00867182 -0.00254 -0.01728 -7.2301e-17 -5.97417e-18 2.16e-11 0 1.61609e-35
2791 1 0.000635 -0.00757197 -0.003175 -0.01728 1.44602e-16 4.77053e-17 2.16e-11 5.26426e-25 3.55539e-35
2877 1 0.000635 -0.00647211 -0.00254 -0.01728 -1.44605e-16 -1.19365e-17 2.16e-11 0 3.23218e-35
2962 1 0.000635 -0.00537226 -0.003175 -0.01728 1.44604e-16 4.7707e-17 2.16e-11 0 3.55539e-35
3049 1 0.000635 -0.00427241 -0.00254 -0.01728 -1.03284e-16 -1.19373e-17 2.16e-11 5.26426e-25 1.93931e-35
3135 1 0.000635 -0.00317256 -0.003175 -0.01728 3.09963e-17 4.17472e-17 2.16e-11 1.05285e-24 6.46435e-36
3222 1 0.000635 -0.0020727 -0.00254 -0.01728 0 -1.43996e-20 2.16e-11 0 0
3308 1 0.000635 -0.000972852 -0.003175 -0.01728 0 3.57823e-17 2.16e-11 1.05285e-24 3.23218e-36
3395 1 0.000635 0.000127 -0.00254 -0.01728 0 -1.35525e-20 2.16e-11 0 0
3481 1 0.000635 0.00122685 -0.003175 -0.01728 0 3.57823e-17 2.16e-11 1.05285e-24 3.23218e-36
3568 1 0.000635 0.0023267 -0.00254 -0.01728 -6.77626e-21 -1.35525e-20 2.16e-11 0 0
3654 1 0.000635 0.00342656 -0.003175 -0.01728 3.09777e-17 4.17463e-17 2.16e-11 1.05285e-24 6.46435e-36
3741 1 0.000635 0.00452641 -0.00254 -0.01728 4.13115e-17 -1.19382e-17 2.16e-11 5.26426e-25 1.93931e-35
3827 1 0.000635 0.00562626 -0.003175 -0.01728 -1.44595e-16 4.77053e-17 2.16e-11 5.26426e-25 3.55539e-35
3913 1 0.000635 0.00672611 -0.00254 -0.01728 7.23095e-17 -5.97502e-18 2.16e-11 0 1.61609e-35
3998 1 0.000635 0.00782597 -0.003175 -0.01728 0 3.57823e-17 2.16e-11 1.05285e-24 3.23218e-36
4084 1 0.000635 0.00892582 -0.00254 -0.01728 -8.47033e-21 -1.27055e-20 2.16e-11 0 0
4169 1 0.000635 0.0100257 -0.003175 -0.01728 1.3427e-16 4.1748e-17 2.16e-11 5.26426e-25 5.81792e-35
4255 1 0.000635 0.0111255 -0.00254 -0.01728 1.40704e-07 -2.91708e-08 -4.75554e-06 2.17099e-10 6.33506e-35
4339 1 0.000635 0.0122254 -0.003175 -0.01728 4.50482e-05 3.02985e-06 1.80184e-05 2.85782e-10 6.75931e-12
2451 1 0.000635 -0.0119714 -0.001905 -0.01728 3.81908e-06 2.91015e-05 8.92484e-06 4.50696e-10 7.70875e-12
2536 1 0.000635 -0.0108715 -0.00127 -0.01728 -2.55306e-07 -1.03485e-08 -6.2874e-06 3.83757e-10 6.33506e-35
2621 1 0.000635 -0.00977167 -0.001905 -0.01728 -1.44592e-16 -1.19229e-17 2.16e-11 5.26426e-25 6.39971e-35
2707 1 0.000635 -0.00867182 -0.00127 -0.01728 -7.2301e-17 5.96909e-18 2.16e-11 5.26426e-25 1.61609e-35
2792 1 0.000635 -0.00757197 -0.001905 -0.01728 1.44605e-16 -1.19229e-17 2.16e-11 0 3.29682e-35
2878 1 0.000635 -0.00647211 -0.00127 -0.01728 -1.44605e-16 1.19331e-17 2.16e-11 0 3.23218e-35
2963 1 0.000635 -0.00537226 -0.001905 -0.01728 1.44602e-16 -1.19246e-17 2.16e-11 0 3.29682e-35
3050 1 0.000635 -0.00427241 -0.00127 -0.01728 -1.13613e-16 5.96993e-18 2.16e-11 0 2.13324e-35
3136 1 0.000635 -0.00317256 -0.001905 -0.01728 4.13081e-17 -1.19229e-17 2.16e-11 0 5.81792e-36
3223 1 0.000635 -0.0020727 -0.00127 -0.01728 0 7.6233e-21 2.16e-11 0 0
3309 1 0.000635 -0.000972852 -0.001905 -0.01728 0 -1.19229e-17 2.16e-11 0 6.46435e-37
3396 1 0.000635 0.000127 -0.00127 -0.01728 0 6.77626e-21 2.16e-11 0 0
3482 1 0.000635 0.00122685 -0.001905 -0.01728 0 -1.19229e-17 2.16e-11 0 6.46435e-37
3569 1 0.000635 0.0023267 -0.00127 -0.01728 -6.77626e-21 6.77626e-21 2.16e-11 0 0
3655 1 0.000635 0.00342656 -0.001905 -0.01728 2.06608e-17 -1.19229e-17 2.16e-11 0 1.93931e-36
3742 1 0.000635 0.00452641 -0.00127 -0.01728 4.13149e-17 1.19331e-17 2.16e-11 5.26426e-25 1.93931e-35
3828 1 0.000635 0.00562626 -0.001905 -0.01728 -1.44599e-16 -1.19229e-17 2.16e-11 0 3.29682e-35
3914 1 0.000635 0.00672611 -0.00127 -0.01728 7.23078e-17 5.96909e-18 2.16e-11 5.26426e-25 1.61609e-35
3999 1 0.000635 0.00782597 -0.001905 -0.01728 -6.77626e-21 -1.19229e-17 2.16e-11 5.26426e-25 6.46435e-37
4085 1 0.000635 0.00892582 -0.00127 -0.01728 -6.77626e-21 6.77626e-21 2.16e-11 0 0
4170 1 0.000635 0.0100257 -0.001905 -0.01728 1.44599e-16 -1.19229e-17 2.16e-11 0 6.39971e-35
4256 1 0.000635 0.0111255 -0.00127 -0.01728 1.53601e-07 -1.54467e-09 -4.88996e-06 2.29619e-10 6.33506e-35
4340 1 0.000635 0.0122254 -0.001905 -0.01728 6.63457e-06 5.67762e-06 9.41888e-06 2.79755e-10 4.66253e-13
2452 1 0.000635 -0.0119714 -0.000635 -0.01728 -3.80043e-06 7.59243e-06 1.17598e-05 4.40832e-10 6.08488e-13
2622 1 0.000635 -0.00977167 -0.000635 -0.01728 -1.44599e-16 -8.47033e-21 2.16e-11 0 6.33506e-35
2793 1 0.000635 -0.00757197 -0.000635 -0.01728 1.44604e-16 -1.19339e-17 2.16e-11 5.26426e-25 3.23218e-35
2964 1 0.000635 -0.00537226 -0.000635 -0.01728 1.44604e-16 -1.19365e-17 2.16e-11 0 3.23218e-35
3137 1 0.000635 -0.00317256 -0.000635 -0.01728 4.13183e-17 -8.47033e-21 2.16e-11 0 5.17148e-36
3310 1 0.000635 -0.000972852 -0.000635 -0.01728 0 -8.47033e-21 2.16e-11 0 0
3483 1 0.000635 0.00122685 -0.000635 -0.01728 0 -8.47033e-21 2.16e-11 0 0
3656 1 0.000635 0.00342656 -0.000635 -0.01728 3.09811e-17 -5.97078e-18 2.16e-11 5.26426e-25 3.23218e-36
3829 1 0.000635 0.00562626 -0.000635 -0.01728 -1.44597e-16 -1.19339e-17 2.16e-11 5.26426e-25 3.23218e-35
4000 1 0.000635 0.00782597 -0.000635 -0.01728 0 -8.47033e-21 2.16e-11 0 0
4171 1 0.000635 0.0100257 -0.000635 -0.01728 1.44599e-16 -8.47033e-21 2.16e-11 0 6.33506e-35
4341 1 0.000635 0.0122254 -0.000635 -0.01728 4.78363e-07 2.23325e-06 7.40728e-06 2.91285e-10 4.89513e-14
2453 1 0.000635 -0.0119714 0.000635 -0.01728 -3.80042e-06 -7.59235e-06 1.17598e-05 4.40832e-10 6.08477e-13
2537 1 0.000635 -0.0108715 0 -0.01728 -2.56592e-07 4.53035e-14 -6.29203e-06 3.84355e-10 6.33506e-35
2623 1 0.000635 -0.00977167 0.000635 -0.01728 -1.44599e-16 -3.38813e-21 2.16e-11 0 6.33506e-35
2708 1 0.000635 -0.00867182 0 -0.01728 -8.26247e-17 5.92923e-21 2.16e-11 0 2.06859e-35
2794 1 0.000635 -0.00757197 0.000635 -0.01728 1.44602e-16 -3.38813e-21 2.16e-11 0 3.23218e-35
2879 1 0.000635 -0.00647211 0 -0.01728 -1.44605e-16 5.0822e-21 2.16e-11 0 3.23218e-35
2965 1 0.000635 -0.00537226 0.000635 -0.01728 1.44602e-16 -3.38813e-21 2.16e-11 0 3.23218e-35
3051 1 0.000635 -0.00427241 0 -0.01728 -1.03282e-16 5.92923e-21 2.16e-11 0 1.68073e-35
3138 1 0.000635 -0.00317256 0.000635 -0.01728 4.13149e-17 -3.38813e-21 2.16e-11 0 5.17148e-36
3224 1 0.000635 -0.0020727 0 -0.01728 0 6.77626e-21 2.16e-11 0 0
3311 1 0.000635 -0.000972852 0.000635 -0.01728 0 -3.38813e-21 2.16e-11 0 0
3397 1 0.000635 0.000127 0 -0.01728 0 6.77626e-21 2.16e-11 0 0
3484 1 0.000635 0.00122685 0.000635 -0.01728 0 -3.38813e-21 2.16e-11 0 0
3570 1 0.000635 0.0023267 0 -0.01728 -3.38813e-21 5.0822e-21 2.16e-11 5.26426e-25 0
3657 1 0.000635 0.00342656 0.000635 -0.01728 2.06574e-17 -3.38813e-21 2.16e-11 0 1.29287e-36
3743 1 0.000635 0.00452641 0 -0.01728 4.13132e-17 5.92923e-21 2.16e-11 0 1.29287e-35
3830 1 0.000635 0.00562626 0.000635 -0.01728 -1.44595e-16 -3.38813e-21 2.16e-11 0 3.23218e-35
3915 1 0.000635 0.00672611 0 -0.01728 8.26315e-17 5.92923e-21 2.16e-11 0 2.06859e-35
4001 1 0.000635 0.00782597 0.000635 -0.01728 0 -3.38813e-21 2.16e-11 0 0
4086 1 0.000635 0.00892582 0 -0.01728 -6.77626e-21 6.77626e-21 2.16e-11 0 0
4172 1 0.000635 0.0100257 0.000635 -0.01728 1.44599e-16 -3.38813e-21 2.16e-11 0 6.33506e-35
4257 1 0.000635 0.0111255 0 -0.01728 1.5433e-07 -1.17608e-14 -4.88625e-06 2.29268e-10 6.33506e-35
4342 1 0.000635 0.0122254 0.000635 -0.01728 4.78349e-07 -2.23328e-06 7.40728e-06 2.91285e-10 4.89523e-14
2454 1 0.000635 -0.0119714 0.001905 -0.01728 3.81909e-06 -2.91014e-05 8.92483e-06 4.50696e-10 7.70871e-12
2538 1 0.000635 -0.0108715 0.00127 -0.01728 -2.55306e-07 1.03485e-08 -6.2874e-06 3.83757e-10 6.33506e-35
2624 1 0.000635 -0.00977167 0.001905 -0.01728 -1.44595e-16 1.19221e-17 2.16e-11 0 6.39971e-35
2709 1 0.000635 -0.00867182 0.00127 -0.01728 -8.26264e-17 0 2.16e-11 0 2.06859e-35
2795 1 0.000635 -0.00757197 0.001905 -0.01728 1.44604e-16 1.19221e-17 2.16e-11 0 3.29682e-35
2880 1 0.000635 -0.00647211 0.00127 -0.01728 -1.44605e-16 0 2.16e-11 0 3.23218e-35
2966 1 0.000635 -0.00537226 0.001905 -0.01728 1.44604e-16 1.19238e-17 2.16e-11 0 3.29682e-35
3052 1 0.000635 -0.00427241 0.00127 -0.01728 -1.0328e-16 0 2.16e-11 0 1.68073e-35
3139 1 0.000635 -0.00317256 0.001905 -0.01728 4.13115e-17 1.19229e-17 2.16e-11 0 5.81792e-36
3225 1 0.000635 -0.0020727 0.00127 -0.01728 0 0 2.16e-11 0 0
3312 1 0.000635 -0.000972852 0.001905 -0.01728 0 1.19212e-17 2.16e-11 0 6.46435e-37
3398 1 0.000635 0.000127 0.00127 -0.01728 0 0 2.16e-11 0 0
3485 1 0.000635 0.00122685 0.001905 -0.01728 0 1.19212e-17 2.16e-11 0 6.46435e-37
3571 1 0.000635 0.0023267 0.00127 -0.01728 -6.77626e-21 0 2.16e-11 0 0
3658 1 0.000635 0.00342656 0.001905 -0.01728 2.06591e-17 1.19221e-17 2.16e-11 0 1.93931e-36
3744 1 0.000635 0.00452641 0.00127 -0.01728 4.13115e-17 0 2.16e-11 0 1.29287e-35
3831 1 0.000635 0.00562626 0.001905 -0.01728 -1.44597e-16 1.19221e-17 2.16e-11 0 3.29682e-35
3916 1 0.000635 0.00672611 0.00127 -0.01728 8.26331e-17 0 2.16e-11 0 2.06859e-35
4002 1 0.000635 0.00782597 0.001905 -0.01728 -3.38813e-21 1.19221e-17 2.16e-11 0 6.46435e-37
4087 1 0.000635 0.00892582 0.00127 -0.01728 -6.77626e-21 0 2.16e-11 0 0
4173 1 0.000635 0.0100257 0.001905 -0.01728 1.44599e-16 1.19212e-17 2.16e-11 0 6.39971e-35
4258 1 0.000635 0.0111255 0.00127 -0.01728 1.53601e-07 1.54467e-09 -4.88996e-06 2.29619e-10 6.33506e-35
4343 1 0.000635 0.0122254 0.001905 -0.01728 6.63458e-06 -5.67762e-06 9.41889e-06 2.79755e-10 4.66253e-13
2455 1 0.000635 -0.0119714 0.003175 -0.01728 3.44696e-05 -6.86204e-05 -2.55264e-06 4.77363e-10 4.65848e-11
2539 1 0.000635 -0.0108715 0.00254 -0.01728 -2.5546e-07 1.71363e-08 -6.31416e-06 3.8709e-10 6.33506e-35
2625 1 0.000635 -0.00977167 0.003175 -0.01728 -1.3427e-16 -4.1748e-17 2.16e-11 5.26426e-25 5.81792e-35
2710 1 0.000635 -0.00867182 0.00254 -0.01728 -7.2301e-17 5.97417e-18 2.16e-11 0 1.61609e-35
2796 1 0.000635 -0.00757197 0.003175 -0.01728 1.44602e-16 -4.77053e-17 2.16e-11 5.26426e-25 3.55539e-35
2881 1 0.000635 -0.00647211 0.00254 -0.01728 -1.44605e-16 1.19365e-17 2.16e-11 0 3.23218e-35
2967 1 0.000635 -0.00537226 0.003175 -0.01728 1.44604e-16 -4.7707e-17 2.16e-11 0 3.55539e-35
3053 1 0.000635 -0.00427241 0.00254 -0.01728 -1.03284e-16 1.19373e-17 2.16e-11 5.26426e-25 1.93931e-35
3140 1 0.000635 -0.00317256 0.003175 -0.01728 3.09963e-17 -4.17472e-17 2.16e-11 1.05285e-24 6.46435e-36
3226 1 0.000635 -0.0020727 0.00254 -0.01728 0 1.43996e-20 2.16e-11 0 0
3313 1 0.000635 -0.000972852 0.003175 -0.01728 0 -3.57823e-17 2.16e-11 1.05285e-24 3.23218e-36
3399 1 0.000635 0.000127 0.00254 -0.01728 0 1.35525e-20 2.16e-11 0 0
3486 1 0.000635 0.00122685 0.003175 -0.01728 0 -3.57823e-17 2.16e-11 1.05285e-24 3.23218e-36
3572 1 0.000635 0.0023267 0.00254 -0.01728 -6.77626e-21 1.35525e-20 2.16e-11 0 0
3659 1 0.000635 0.00342656 0.003175 -0.01728 3.09777e-17 -4.17463e-17 2.16e-11 1.05285e-24 6.46435e-36
3745 1 0.000635 0.00452641 0.00254 -0.01728 4.13115e-17 1.19382e-17 2.16e-11 5.26426e-25 1.93931e-35
3832 1 0.000635 0.00562626 0.003175 -0.01728 -1.44595e-16 -4.77053e-17 2.16e-11 5.26426e-25 3.55539e-35
3917 1 0.000635 0.00672611 0.00254 -0.01728 7.23095e-17 5.97502e-18 2.16e-11 0 1.61609e-35
4003 1 0.000635 0.00782597 0.003175 -0.01728 0 -3.57823e-17 2.16e-11 1.05285e-24 3.23218e-36
4088 1 0.000635 0.00892582 0.00254 -0.01728 -8.47033e-21 1.27055e-20 2.16e-11 0 0
4174 1 0.000635 0.0100257 0.003175 -0.01728 1.3427e-16 -4.1748e-17 2.16e-11 5.26426e-25 5.81792e-35
4259 1 0.000635 0.0111255 0.00254 -0.01728 1.40704e-07 2.91708e-08 -4.75554e-06 2.17099e-10 6.33506e-35
4344 1 0.000635 0.0122254 0.003175 -0.01728 4.50482e-05 -3.02989e-06 1.80184e-05 2.85782e-10 6.75932e-12
2456 1 0.000635 -0.0119714 0.004445 -0.01728 -0.000168825 0.000122992 6.811e-05 4.20529e-10 1.43119e-10
2540 1 0.000635 -0.0108715 0.00381 -0.01728 -2.09198e-07 1.06968e-07 -6.03342e-06 3.5292e-10 4.65433e-35
2626 1 0.000635 -0.00977167 0.004445 -0.01728 -4.69614e-09 -8.13395e-09 -4.13317e-07 3.23141e-12 6.01185e-35
2711 1 0.000635 -0.00867182 0.00381 -0.01728 -8.2623e-17 0 2.16e-11 1.05285e-24 2.06859e-35
2797 1 0.000635 -0.00757197 0.004445 -0.01728 1.44602e-16 5.96282e-17 2.16e-11 5.26426e-25 3.74932e-35
2882 1 0.000635 -0.00647211 0.00381 -0.01728 -1.44605e-16 0 2.16e-11 0 3.23218e-35
2968 1 0.000635 -0.00537226 0.004445 -0.01728 1.44604e-16 5.9629e-17 2.16e-11 5.26426e-25 3.74932e-35
3054 1 0.000635 -0.00427241 0.00381 -0.01728 -1.03291e-16 0 2.16e-11 0 1.68073e-35
3141 1 0.000635 -0.00317256 0.004445 -0.01728 3.09963e-17 5.36693e-17 2.16e-11 1.57928e-24 8.40366e-36
3227 1 0.000635 -0.0020727 0.00381 -0.01728 -6.77626e-21 0 2.16e-11 2.10571e-24 0
3314 1 0.000635 -0.000972852 0.004445 -0.01728 0 4.77053e-17 2.16e-11 1.05285e-24 5.17148e-36
3400 1 0.000635 0.000127 0.00381 -0.01728 0 0 2.16e-11 1.05285e-24 0
3487 1 0.000635 0.00122685 0.004445 -0.01728 0 4.77053e-17 2.16e-11 1.05285e-24 5.17148e-36
3573 1 0.000635 0.0023267 0.00381 -0.01728 0 0 2.16e-11 2.10571e-24 0
3660 1 0.000635 0.00342656 0.004445 -0.01728 3.09811e-17 5.36701e-17 2.16e-11 1.05285e-24 8.40366e-36
3746 1 0.000635 0.00452641 0.00381 -0.01728 4.13217e-17 0 2.16e-11 0 1.29287e-35
3833 1 0.000635 0.00562626 0.004445 -0.01728 -1.44597e-16 5.9629e-17 2.16e-11 5.26426e-25 3.74932e-35
3918 1 0.000635 0.00672611 0.00381 -0.01728 8.26298e-17 0 2.16e-11 1.05285e-24 2.06859e-35
4004 1 0.000635 0.00782597 0.004445 -0.01728 -3.38813e-21 4.77061e-17 2.16e-11 1.05285e-24 5.17148e-36
4089 1 0.000635 0.00892582 0.00381 -0.01728 -6.77626e-21 0 2.16e-11 1.05285e-24 0
4175 1 0.000635 0.0100257 0.004445 -0.01728 2.14807e-08 -3.72057e-08 -5.40556e-07 5.56048e-12 6.01185e-35
4260 1 0.000635 0.0111255 0.00381 -0.01728 1.40976e-07 3.53113e-08 -4.81508e-06 2.22552e-10 4.65433e-35
4345 1 0.000635 0.0122254 0.004445 -0.01728 0.000143955 0.000234607 4.39854e-05 2.81592e-09 3.42147e-10
2541 1 0.000635 -0.0108715 0.00508 -0.01728 -2.1346e-05 1.24856e-05 -3.75177e-06 2.71435e-10 2.71451e-12
2712 1 0.000635 -0.00867182 0.00508 -0.01728 -6.19774e-17 2.3845e-17 2.16e-11 0 1.42216e-35
2883 1 0.000635 -0.00647211 0.00508 -0.01728 -1.44605e-16 2.38442e-17 2.16e-11 0 3.49075e-35
3055 1 0.000635 -0.00427241 0.00508 -0.01728 -1.03287e-16 2.38433e-17 2.16e-11 1.57928e-24 2.45645e-35
3228 1 0.000635 -0.0020727 0.00508 -0.01728 -3.38813e-21 2.38442e-17 2.16e-11 0 2.58574e-36
3401 1 0.000635 0.000127 0.00508 -0.01728 0 2.38442e-17 2.16e-11 0 2.58574e-36
3574 1 0.000635 0.0023267 0.00508 -0.01728 -3.38813e-21 2.38459e-17 2.16e-11 0 2.58574e-36
3747 1 0.000635 0.00452641 0.00508 -0.01728 4.13081e-17 2.38433e-17 2.16e-11 5.26426e-25 2.84431e-35
3919 1 0.000635 0.00672611 0.00508 -0.01728 6.19859e-17 2.38442e-17 2.16e-11 0 1.42216e-35
4090 1 0.000635 0.00892582 0.00508 -0.01728 -8.47033e-21 2.3845e-17 2.16e-11 0 2.58574e-36
4261 1 0.000635 0.0111255 0.00508 -0.01728 -4.5926e-05 -2.61144e-05 -1.24203e-05 1.24168e-09 1.29657e-11
2457 1 0.000635 -0.0119705 0.00571571 -0.0172331 4.29215e-09 -1.66756e-09 5.18522e-08 3.39134e-10 1.2631e-10
2542 1 0.000635 -0.0108715 0.00635 -0.01728 -6.44547e-05 8.19706e-05 7.9865e-06 1.45953e-10 4.12559e-11
2627 1 0.000635 -0.00977167 0.005715 -0.01728 -4.28804e-09 -7.4271e-09 -9.93771e-07 1.8702e-11 6.85221e-35
2713 1 0.000635 -0.00867182 0.00635 -0.01728 -4.31199e-10 -7.46859e-10 -3.92457e-07 2.91189e-12 2.9736e-35
2798 1 0.000635 -0.00757197 0.005715 -0.01728 1.44602e-16 -4.76832e-17 2.16e-11 0 3.74932e-35
2884 1 0.000635 -0.00647211 0.00635 -0.01728 -1.44609e-16 -7.15816e-17 2.16e-11 0 4.0079e-35
2969 1 0.000635 -0.00537226 0.005715 -0.01728 1.44604e-16 -4.76841e-17 2.16e-11 5.26426e-25 3.74932e-35
3056 1 0.000635 -0.00427241 0.00635 -0.01728 -1.13621e-16 -7.75431e-17 2.16e-11 0 2.90896e-35
3142 1 0.000635 -0.00317256 0.005715 -0.01728 2.0671e-17 -4.76858e-17 2.16e-11 5.26426e-25 6.46435e-36
3229 1 0.000635 -0.0020727 0.00635 -0.01728 -5.0822e-21 -7.15842e-17 2.16e-11 0 1.0343e-35
3315 1 0.000635 -0.000972852 0.005715 -0.01728 0 -4.76866e-17 2.16e-11 0 5.17148e-36
3402 1 0.000635 0.000127 0.00635 -0.01728 0 -7.1585e-17 2.16e-11 0 1.0343e-35
3488 1 0.000635 0.00122685 0.005715 -0.01728 0 -4.76866e-17 2.16e-11 0 5.17148e-36
3575 1 0.000635 0.0023267 0.00635 -0.01728 0 -7.15842e-17 2.16e-11 0 1.0343e-35
3661 1 0.000635 0.00342656 0.005715 -0.01728 4.13098e-17 -4.76858e-17 2.16e-11 0 1.0343e-35
3748 1 0.000635 0.00452641 0.00635 -0.01728 4.13183e-17 -7.15816e-17 2.16e-11 0 2.06859e-35
3834 1 0.000635 0.00562626 0.005715 -0.01728 -1.44597e-16 -4.76841e-17 2.16e-11 0 3.74932e-35
3920 1 0.000635 0.00672611 0.00635 -0.01728 6.19774e-17 -7.15825e-17 2.16e-11 0 2.9736e-35
4005 1 0.000635 0.00782597 0.005715 -0.01728 -6.77626e-21 -4.76849e-17 2.16e-11 0 5.17148e-36
4091 1 0.000635 0.00892582 0.00635 -0.01728 -2.17288e-08 3.76353e-08 -1.48131e-06 4.16867e-11 1.0343e-35