ITEM: TIMESTEP
600000
ITEM: NUMBER OF ATOMS
6793
ITEM: BOX BOUNDS ff ff ff
-8.9999999999999997e-02 8.9999999999999997e-02
-8.9999999999999997e-02 8.9999999999999997e-02
-4.0000000000000001e-02 4.0000000000000001e-02
ITEM: ATOMS id type radius x y z fx fy fz c_bendingE c_stretchingE
3384 1 0.000635 0.000112299 -0.0164533 -0.00589469 1.66009e-10 -1.1769e-10 -5.78816e-11 7.014e-10 2.60729e-11
3470 1 0.000635 0.00120451 -0.0170834 -0.00574852 2.53717e-10 -6.28771e-10 -2.136e-09 4.06484e-10 5.81848e-11
3557 1 0.000635 0.00230598 -0.0164538 -0.00579828 3.4621e-10 -6.01246e-10 -2.52542e-09 8.86247e-11 5.18363e-11
3298 1 0.000635 -0.000948171 -0.0157626 -0.00580125 1.10585e-09 8.54762e-10 2.06273e-09 1.11379e-09 7.01098e-11
3385 1 0.000635 0.000124249 -0.0152258 -0.0062193 1.65961e-10 -3.73519e-10 -1.69779e-09 5.414e-10 3.43075e-11
3471 1 0.000635 0.00121772 -0.0158459 -0.00604026 9.10547e-12 2.05936e-10 1.27043e-09 5.74887e-10 7.29084e-11
3558 1 0.000635 0.00231486 -0.015207 -0.00604681 3.9632e-10 -6.81275e-10 -3.38081e-09 4.6109e-11 7.28168e-11
3644 1 0.000635 0.00340322 -0.0158154 -0.00580481 5.82335e-10 -1.04274e-09 -5.12336e-09 8.62866e-12 2.67004e-11
3731 1 0.000635 0.00450362 -0.0151834 -0.0058403 9.85783e-11 1.67005e-11 1.00109e-10 5.09624e-12 1.55515e-11
3040 1 0.000635 -0.00420965 -0.0138558 -0.00580503 7.08888e-10 1.04452e-09 2.49686e-09 4.40037e-10 1.64971e-11
3126 1 0.000635 -0.00309471 -0.014461 -0.00574428 1.16568e-10 -3.05147e-11 2.40373e-10 8.33743e-10 3.58795e-11
3213 1 0.000635 -0.00207015 -0.0139565 -0.00630227 1.20888e-11 -9.66257e-11 -6.34259e-11 8.24407e-10 1.46887e-10
3299 1 0.000635 -0.000973217 -0.0145933 -0.00629372 1.08223e-10 -1.04796e-10 -8.31223e-11 8.07903e-10 7.1839e-11
3386 1 0.000635 0.00012685 -0.0139681 -0.00639951 7.52766e-11 -1.24685e-10 -5.6167e-10 6.32482e-10 1.92323e-11
3472 1 0.000635 0.00122408 -0.014594 -0.00626328 9.45743e-11 -1.46353e-10 -5.98278e-10 2.73316e-10 6.22405e-11
3559 1 0.000635 0.00232211 -0.0139562 -0.00627609 2.22265e-10 -4.19149e-10 -2.23611e-09 8.75559e-11 1.62865e-10
3645 1 0.000635 0.00341248 -0.0145696 -0.00605584 4.90117e-10 -9.60883e-10 -4.83693e-09 1.48388e-11 3.71015e-11
3732 1 0.000635 0.00451368 -0.01394 -0.00610093 -2.83892e-10 1.02216e-09 5.06816e-09 1.54562e-11 2.46948e-11
3818 1 0.000635 0.00560681 -0.0145592 -0.0059117 -1.74394e-11 2.59796e-10 1.17005e-09 8.2076e-12 1.23249e-11
3904 1 0.000635 0.00671048 -0.0139364 -0.00599137 -9.11907e-11 2.90235e-10 1.5154e-09 4.23782e-11 1.91001e-11
3989 1 0.000635 0.00780339 -0.0145559 -0.00580322 -2.52356e-11 2.88219e-11 -3.3197e-11 3.89973e-10 5.00064e-11
4075 1 0.000635 0.008897 -0.013912 -0.00578052 -3.36076e-10 3.05584e-10 8.61533e-10 4.84801e-10 2.90679e-11
2869 1 0.000635 -0.00642178 -0.0126094 -0.00586856 -9.99317e-11 -5.73743e-10 -6.05267e-10 3.41698e-10 2.10872e-12
2954 1 0.000635 -0.0053172 -0.0132353 -0.00584096 2.567e-10 1.09435e-10 8.78836e-10 3.72228e-10 3.16705e-12
3041 1 0.000635 -0.00426557 -0.0126854 -0.00629375 1.76271e-10 2.49145e-10 1.0432e-09 4.94916e-10 5.08163e-11
3127 1 0.000635 -0.00316697 -0.01332 -0.00629514 6.62538e-11 -7.95514e-12 1.45568e-10 5.92224e-10 1.37336e-10
3214 1 0.000635 -0.0020727 -0.0127 -0.00648 -6.08391e-05 2.46729e-05 7.01536e-07 6.93712e-10 3.49948e-11
3300 1 0.000635 -0.000972995 -0.0133348 -0.00645938 5.22354e-11 6.05873e-11 1.38798e-09 5.05119e-10 1.78765e-11
3387 1 0.000635 0.000127 -0.0127 -0.00648 1.73581e-06 -4.53368e-05 2.46688e-06 7.22406e-11 6.37466e-12
3473 1 0.000635 0.00122656 -0.013334 -0.00642982 2.02889e-11 2.76069e-11 7.11351e-10 6.76353e-11 2.83765e-11
3560 1 0.000635 0.0023267 -0.0127 -0.00648 4.25597e-05 -0.000209296 4.57398e-05 1.1632e-10 1.4333e-10
3646 1 0.000635 0.00342076 -0.0133218 -0.00629694 3.31629e-11 -4.87103e-11 -2.15905e-10 1.05251e-10 7.8322e-11
3733 1 0.000635 0.0045223 -0.0126915 -0.006334 -7.10721e-12 3.89781e-12 -1.54363e-10 7.70914e-11 1.02088e-11
3819 1 0.000635 0.00561645 -0.0133137 -0.0061617 4.88192e-11 -2.80502e-10 -1.57826e-09 1.69278e-11 7.92787e-12
3905 1 0.000635 0.00671884 -0.0126861 -0.00621788 -1.58182e-10 2.79415e-10 1.88135e-09 4.52966e-11 1.24858e-11
3990 1 0.000635 0.00781313 -0.0133103 -0.00605707 2.14497e-11 -2.4029e-10 -1.46644e-09 2.97943e-10 5.3837e-11
4076 1 0.000635 0.00890804 -0.0126681 -0.006032 -2.20304e-10 1.6675e-10 6.84203e-10 5.46915e-10 2.62979e-11
2784 1 0.000635 -0.00752507 -0.0119815 -0.00589393 3.29613e-10 2.63846e-10 9.18525e-10 3.36245e-10 1.02835e-11
2870 1 0.000635 -0.00646494 -0.0114181 -0.00630696 1.56889e-10 7.52076e-11 7.59823e-10 3.97542e-10 1.42235e-11
2955 1 0.000635 -0.00536499 -0.0120515 -0.00629811 2.39309e-10 3.18481e-10 1.68854e-09 4.31613e-10 2.01461e-11
3042 1 0.000635 -0.00427241 -0.01143 -0.00648 -4.7664e-06 4.11384e-05 -4.2889e-06 3.47158e-10 9.07104e-12
3128 1 0.000635 -0.00317256 -0.012065 -0.00648 -2.69496e-05 6.37031e-05 -6.5557e-06 4.39763e-10 3.31742e-11
3215 1 0.000635 -0.0020727 -0.01143 -0.00648 1.79453e-08 -7.01967e-08 -3.21071e-06 9.8099e-11 5.17148e-36
3301 1 0.000635 -0.000972852 -0.012065 -0.00648 4.00619e-08 1.23318e-06 -3.01039e-06 8.60094e-11 8.09787e-15
3388 1 0.000635 0.000127 -0.01143 -0.00648 1.32166e-09 0 -7.09546e-07 9.52431e-12 5.17148e-36
3474 1 0.000635 0.00122685 -0.012065 -0.00648 -2.21267e-08 1.2162e-06 -1.98792e-06 7.38307e-11 7.76914e-15
3561 1 0.000635 0.0023267 -0.01143 -0.00648 1.70073e-08 -4.05616e-08 -3.08153e-06 9.27327e-11 5.17148e-36
3647 1 0.000635 0.00342656 -0.012065 -0.00648 2.90161e-05 -2.03382e-05 9.04927e-06 9.08272e-11 5.2765e-12
3734 1 0.000635 0.00452641 -0.01143 -0.00648 1.25463e-05 -2.72457e-06 4.45088e-06 6.42662e-11 1.05753e-12
3820 1 0.000635 0.0056234 -0.0120597 -0.00636285 -1.74765e-11 -4.50832e-11 -3.04844e-10 5.62958e-11 2.52909e-12
3906 1 0.000635 0.00672417 -0.011427 -0.00638791 -1.33653e-10 2.0408e-10 1.73634e-09 6.11991e-11 6.28132e-12
3991 1 0.000635 0.00782058 -0.0120564 -0.00626698 -2.24984e-10 2.03166e-10 1.33702e-09 4.42421e-10 4.68813e-11
4077 1 0.000635 0.00891812 -0.0114171 -0.00624716 -4.55698e-10 3.78808e-10 2.61705e-09 4.20228e-10 1.0994e-11
2614 1 0.000635 -0.00973065 -0.0107263 -0.00594993 -7.17578e-10 -1.48603e-09 -4.13371e-09 3.86985e-10 7.35636e-11
2699 1 0.000635 -0.0086278 -0.0113533 -0.00591994 -7.30335e-10 -1.65058e-09 -3.4799e-09 3.51776e-10 3.16482e-11
2785 1 0.000635 -0.00756515 -0.010785 -0.00631874 1.53185e-10 2.11191e-10 1.3233e-09 3.80535e-10 2.19339e-11
2956 1 0.000635 -0.00537226 -0.010795 -0.00648 1.28735e-05 2.60842e-05 -3.21055e-06 3.06419e-10 2.72716e-12
3129 1 0.000635 -0.00317256 -0.010795 -0.00648 -1.39564e-08 -6.12946e-08 -3.23622e-06 9.96317e-11 6.46435e-36
3302 1 0.000635 -0.000972852 -0.010795 -0.00648 1.25645e-09 -1.69407e-21 -1.81816e-07 6.2492e-13 5.17148e-36
3475 1 0.000635 0.00122685 -0.010795 -0.00648 2.57829e-09 0 -4.42559e-07 3.7032e-12 5.17148e-36
3648 1 0.000635 0.00342656 -0.010795 -0.00648 3.70115e-08 -2.43711e-08 -2.64732e-06 6.97815e-11 1.0343e-35
3821 1 0.000635 0.00562626 -0.010795 -0.00648 7.63709e-06 -8.61957e-06 3.72484e-06 4.45025e-11 4.42625e-13
3992 1 0.000635 0.00782482 -0.0107937 -0.00641358 -1.02633e-10 1.3058e-10 7.9684e-10 2.49173e-10 3.02408e-11
4163 1 0.000635 0.00999045 -0.0107601 -0.00607138 -4.12109e-10 2.96711e-10 3.56581e-10 4.65766e-10 2.87162e-11
2445 1 0.000635 -0.0119404 -0.00948466 -0.00603956 -9.1123e-11 -1.09783e-11 -9.72928e-10 6.18747e-10 1.45677e-10
2529 1 0.000635 -0.0108348 -0.0101033 -0.0059897 5.34739e-11 2.49349e-10 -8.00074e-10 4.43083e-10 1.25497e-10
2615 1 0.000635 -0.00976558 -0.00951843 -0.00634314 -1.7412e-10 -5.59981e-10 -2.71718e-09 4.08019e-10 5.91727e-11
2700 1 0.000635 -0.00866543 -0.0101519 -0.00633178 1.97929e-10 1.47757e-10 1.39453e-09 3.78587e-10 3.94508e-11
2786 1 0.000635 -0.00757197 -0.009525 -0.00648 4.29935e-05 8.39181e-06 -2.79914e-06 2.66057e-10 1.25281e-11
2871 1 0.000635 -0.00647211 -0.01016 -0.00648 2.85347e-05 1.61115e-05 -2.86811e-06 2.8384e-10 5.05173e-12
2957 1 0.000635 -0.00537226 -0.009525 -0.00648 -4.09379e-08 -4.01688e-08 -3.02744e-06 8.74427e-11 3.74932e-35
3043 1 0.000635 -0.00427241 -0.01016 -0.00648 -3.08654e-08 -5.11042e-08 -3.17008e-06 9.57065e-11 2.71503e-35
3130 1 0.000635 -0.00317256 -0.009525 -0.00648 2.0671e-17 0 2.16e-11 1.05285e-24 6.46435e-36
3216 1 0.000635 -0.0020727 -0.01016 -0.00648 -6.77626e-21 0 2.16e-11 0 5.17148e-36
3303 1 0.000635 -0.000972852 -0.009525 -0.00648 0 0 2.16e-11 0 5.17148e-36
3389 1 0.000635 0.000127 -0.01016 -0.00648 0 0 2.16e-11 0 5.17148e-36
3476 1 0.000635 0.00122685 -0.009525 -0.00648 0 0 2.16e-11 0 5.17148e-36
3562 1 0.000635 0.0023267 -0.01016 -0.00648 0 0 2.16e-11 0 5.17148e-36
3649 1 0.000635 0.00342656 -0.009525 -0.00648 4.13115e-17 0 2.16e-11 0 1.0343e-35
3735 1 0.000635 0.00452641 -0.01016 -0.00648 2.90615e-08 -1.24235e-08 -2.0997e-06 4.39455e-11 3.10289e-35
3822 1 0.000635 0.00562626 -0.009525 -0.00648 2.30131e-08 -3.92014e-09 -1.61885e-06 2.67143e-11 3.74932e-35
3907 1 0.000635 0.00672611 -0.01016 -0.00648 5.38795e-06 -2.20268e-05 2.91804e-06 4.29067e-11 1.80392e-12
3993 1 0.000635 0.00782597 -0.009525 -0.00648 -3.92878e-06 -2.42589e-05 5.05742e-07 1.29589e-10 3.28247e-12
4078 1 0.000635 0.00892477 -0.0101576 -0.00640805 2.37057e-10 -2.48597e-10 -3.11444e-09 4.37181e-10 2.20318e-11
4164 1 0.000635 0.0100183 -0.00951582 -0.00632135 -6.65176e-11 6.44134e-11 1.32573e-10 4.31713e-10 4.08202e-11
4249 1 0.000635 0.0110266 -0.0100812 -0.0057946 1.11006e-09 -7.49181e-10 -2.85234e-09 3.6349e-10 4.2337e-11
2193 1 0.000635 -0.0151977 -0.00887861 -0.00577887 -2.08124e-10 2.38626e-10 3.14807e-10 1.01611e-09 2.37883e-11
2277 1 0.000635 -0.0141543 -0.00825038 -0.00613662 -1.49914e-10 4.62532e-11 -1.74653e-10 9.25341e-10 5.09134e-11
2361 1 0.000635 -0.0130469 -0.00886711 -0.0060874 1.04479e-10 5.30294e-10 1.3125e-10 1.19205e-09 9.85478e-11
2446 1 0.000635 -0.0119671 -0.00825271 -0.00634879 -8.816e-12 1.91383e-10 -8.88218e-11 6.1227e-10 8.28378e-12
2530 1 0.000635 -0.010866 -0.00888563 -0.00635172 -1.73764e-10 -2.08371e-10 -2.21825e-09 5.38966e-10 2.67552e-11
2616 1 0.000635 -0.00977167 -0.008255 -0.00648 1.65635e-05 -3.19022e-05 3.55578e-06 2.07073e-10 1.21639e-11
2701 1 0.000635 -0.00867182 -0.00889 -0.00648 5.48587e-05 4.78823e-07 -2.70426e-06 2.4232e-10 2.27521e-11
2787 1 0.000635 -0.00757197 -0.008255 -0.00648 -4.83936e-08 -2.02238e-08 -2.62998e-06 6.61033e-11 4.0079e-35
2872 1 0.000635 -0.00647211 -0.00889 -0.00648 -4.62793e-08 -2.93811e-08 -2.83421e-06 7.67654e-11 3.74932e-35
2958 1 0.000635 -0.00537226 -0.008255 -0.00648 1.44607e-16 -7.15799e-17 2.16e-11 5.26426e-25 4.0079e-35
3044 1 0.000635 -0.00427241 -0.00889 -0.00648 -1.03289e-16 -4.76841e-17 2.16e-11 1.05285e-24 2.71503e-35
3131 1 0.000635 -0.00317256 -0.008255 -0.00648 3.09912e-17 -7.75431e-17 2.16e-11 5.26426e-25 1.87466e-35
3217 1 0.000635 -0.0020727 -0.00889 -0.00648 -3.38813e-21 -4.76866e-17 2.16e-11 0 5.17148e-36
3304 1 0.000635 -0.000972852 -0.008255 -0.00648 0 -7.15833e-17 2.16e-11 0 1.0343e-35
3390 1 0.000635 0.000127 -0.00889 -0.00648 0 -4.76866e-17 2.16e-11 0 5.17148e-36
3477 1 0.000635 0.00122685 -0.008255 -0.00648 0 -7.15833e-17 2.16e-11 0 1.0343e-35
3563 1 0.000635 0.0023267 -0.00889 -0.00648 0 -4.76858e-17 2.16e-11 0 5.17148e-36
3650 1 0.000635 0.00342656 -0.008255 -0.00648 4.13098e-17 -7.15825e-17 2.16e-11 0 1.0343e-35
3736 1 0.000635 0.00452641 -0.00889 -0.00648 4.13115e-17 -4.76841e-17 2.16e-11 0 3.10289e-35
3823 1 0.000635 0.00562626 -0.008255 -0.00648 -1.446e-16 -7.15791e-17 2.16e-11 0 4.0079e-35
3908 1 0.000635 0.00672611 -0.00889 -0.00648 1.01216e-08 -1.21282e-08 -1.4465e-06 2.00999e-11 1.68073e-35
3994 1 0.000635 0.00782597 -0.008255 -0.00648 -8.74184e-09 -3.2696e-08 -1.98584e-06 4.37141e-11 1.0343e-35
4079 1 0.000635 0.00892582 -0.00889 -0.00648 -4.63109e-05 4.82721e-05 -8.8266e-06 2.83528e-10 1.54685e-11
4165 1 0.000635 0.0100257 -0.008255 -0.00648 0.000118939 5.40051e-06 2.63207e-05 3.86676e-10 7.27879e-11
4250 1 0.000635 0.0110869 -0.00885807 -0.00612771 1.15213e-09 -8.2712e-10 -3.60258e-09 4.57354e-10 2.90972e-11
4335 1 0.000635 0.0121408 -0.00819027 -0.00589251 9.09494e-10 -6.54773e-10 -2.44024e-09 4.15024e-10 1.4605e-11
2194 1 0.000635 -0.0152305 -0.00761603 -0.00591011 6.52585e-12 1.34264e-10 3.96667e-10 5.22109e-10 7.87605e-11
2278 1 0.000635 -0.0141539 -0.00698138 -0.00614574 -6.74458e-10 1.84675e-11 -3.43624e-09 8.04464e-10 8.24776e-11
2362 1 0.000635 -0.0130669 -0.00761784 -0.00631298 -6.47202e-10 -1.90305e-10 -4.85122e-09 6.15988e-10 2.14545e-11
2447 1 0.000635 -0.0119706 -0.00698476 -0.00642043 -4.31369e-12 5.03099e-11 7.98152e-10 1.30689e-10 9.97713e-12
2531 1 0.000635 -0.0108714 -0.00762002 -0.00645977 -3.43415e-11 -2.70176e-11 -1.05955e-09 1.64855e-10 1.6568e-12
2617 1 0.000635 -0.00977167 -0.006985 -0.00648 -4.71882e-06 -2.69488e-06 -1.86227e-06 4.20452e-11 1.31451e-13
2702 1 0.000635 -0.00867182 -0.00762 -0.00648 -5.17369e-08 -7.98398e-09 -2.43837e-06 5.67039e-11 2.9736e-35
2788 1 0.000635 -0.00757197 -0.006985 -0.00648 1.44605e-16 -2.38958e-17 2.16e-11 0 4.0079e-35
2873 1 0.000635 -0.00647211 -0.00762 -0.00648 -1.44609e-16 2.38967e-17 2.16e-11 0 4.0079e-35
2959 1 0.000635 -0.00537226 -0.006985 -0.00648 1.44605e-16 -2.38958e-17 2.16e-11 0 4.0079e-35
3045 1 0.000635 -0.00427241 -0.00762 -0.00648 -1.13623e-16 2.98573e-17 2.16e-11 0 2.90896e-35
3132 1 0.000635 -0.00317256 -0.006985 -0.00648 3.09912e-17 -2.98573e-17 2.16e-11 0 1.87466e-35
3218 1 0.000635 -0.0020727 -0.00762 -0.00648 -1.69407e-21 2.38958e-17 2.16e-11 0 1.0343e-35
3305 1 0.000635 -0.000972852 -0.006985 -0.00648 0 -2.38967e-17 2.16e-11 0 1.0343e-35
3391 1 0.000635 0.000127 -0.00762 -0.00648 0 2.38967e-17 2.16e-11 0 1.0343e-35
3478 1 0.000635 0.00122685 -0.006985 -0.00648 0 -2.38967e-17 2.16e-11 0 1.0343e-35
3564 1 0.000635 0.0023267 -0.00762 -0.00648 0 2.38967e-17 2.16e-11 0 1.0343e-35
3651 1 0.000635 0.00342656 -0.006985 -0.00648 4.13081e-17 -2.38967e-17 2.16e-11 0 1.0343e-35
3737 1 0.000635 0.00452641 -0.00762 -0.00648 4.13217e-17 2.38958e-17 2.16e-11 0 2.06859e-35
3824 1 0.000635 0.00562626 -0.006985 -0.00648 -1.44599e-16 -2.3895e-17 2.16e-11 0 4.0079e-35
3909 1 0.000635 0.00672611 -0.00762 -0.00648 6.19757e-17 2.38958e-17 2.16e-11 0 2.9736e-35
3995 1 0.000635 0.00782597 -0.006985 -0.00648 -6.77626e-21 -2.38967e-17 2.16e-11 0 1.0343e-35
4080 1 0.000635 0.00892582 -0.00762 -0.00648 -2.74425e-08 -6.35112e-08 -3.74072e-06 1.93684e-10 1.0343e-35
4166 1 0.000635 0.0100257 -0.006985 -0.00648 -4.34174e-05 2.49555e-05 -7.37071e-06 3.10332e-10 1.1578e-11
4251 1 0.000635 0.0111226 -0.00761696 -0.00639028 1.16008e-11 1.05053e-11 1.50324e-10 4.55862e-10 1.01598e-10
4336 1 0.000635 0.0122059 -0.00696987 -0.00623736 1.05485e-10 4.40869e-12 -1.91494e-10 5.06763e-10 4.72552e-11
2195 1 0.000635 -0.0152195 -0.00634709 -0.00587087 -1.16784e-09 2.03535e-10 -4.67256e-09 6.92718e-11 3.66323e-11
2279 1 0.000635 -0.0141427 -0.0057126 -0.00610201 -1.35128e-10 -1.65501e-11 -3.83687e-10 3.57501e-11 3.84721e-11
2363 1 0.000635 -0.0130652 -0.00634845 -0.00631872 7.13251e-11 -6.41109e-11 9.76281e-10 1.26456e-10 3.34291e-11
2448 1 0.000635 -0.0119709 -0.00571511 -0.00644622 -1.54049e-10 -6.20603e-12 -1.42223e-09 5.72502e-11 1.76677e-11
2532 1 0.000635 -0.0108715 -0.00635 -0.00648 -2.91559e-05 -2.62771e-05 1.61887e-06 3.80429e-11 5.4638e-12
2618 1 0.000635 -0.00977167 -0.005715 -0.00648 -8.10337e-10 1.40355e-09 -5.25082e-07 5.21364e-12 6.85221e-35
2703 1 0.000635 -0.00867182 -0.00635 -0.00648 -2.48138e-10 4.29787e-10 -1.78413e-07 6.01725e-13 2.9736e-35
2789 1 0.000635 -0.00757197 -0.005715 -0.00648 1.44602e-16 4.76832e-17 2.16e-11 0 3.74932e-35
2874 1 0.000635 -0.00647211 -0.00635 -0.00648 -1.44609e-16 7.15816e-17 2.16e-11 0 4.0079e-35
2960 1 0.000635 -0.00537226 -0.005715 -0.00648 1.44604e-16 4.76841e-17 2.16e-11 5.26426e-25 3.74932e-35
3046 1 0.000635 -0.00427241 -0.00635 -0.00648 -1.13621e-16 7.75431e-17 2.16e-11 0 2.90896e-35
3133 1 0.000635 -0.00317256 -0.005715 -0.00648 2.0671e-17 4.76858e-17 2.16e-11 5.26426e-25 6.46435e-36
3219 1 0.000635 -0.0020727 -0.00635 -0.00648 -5.0822e-21 7.15842e-17 2.16e-11 0 1.0343e-35
3306 1 0.000635 -0.000972852 -0.005715 -0.00648 0 4.76866e-17 2.16e-11 0 5.17148e-36
3392 1 0.000635 0.000127 -0.00635 -0.00648 0 7.1585e-17 2.16e-11 0 1.0343e-35
3479 1 0.000635 0.00122685 -0.005715 -0.00648 0 4.76866e-17 2.16e-11 0 5.17148e-36
3565 1 0.000635 0.0023267 -0.00635 -0.00648 0 7.15842e-17 2.16e-11 0 1.0343e-35
3652 1 0.000635 0.00342656 -0.005715 -0.00648 4.13098e-17 4.76858e-17 2.16e-11 0 1.0343e-35
3738 1 0.000635 0.00452641 -0.00635 -0.00648 4.13183e-17 7.15816e-17 2.16e-11 0 2.06859e-35
3825 1 0.000635 0.00562626 -0.005715 -0.00648 -1.44597e-16 4.76841e-17 2.16e-11 0 3.74932e-35
3910 1 0.000635 0.00672611 -0.00635 -0.00648 6.19774e-17 7.15825e-17 2.16e-11 0 2.9736e-35
3996 1 0.000635 0.00782597 -0.005715 -0.00648 -6.77626e-21 4.76849e-17 2.16e-11 0 5.17148e-36
4081 1 0.000635 0.00892582 -0.00635 -0.00648 -5.08298e-09 -8.80398e-09 -7.91806e-07 1.18654e-11 1.0343e-35
4167 1 0.000635 0.0100257 -0.005715 -0.00648 -1.47609e-08 -2.55667e-08 -2.14168e-06 8.75054e-11 6.85221e-35
4252 1 0.000635 0.0111255 -0.00635 -0.00648 -9.1468e-05 -3.65403e-06 -1.1328e-05 4.20541e-10 2.65319e-11
4337 1 0.000635 0.0122239 -0.00571538 -0.00644111 1.33637e-11 3.51882e-11 3.38548e-10 5.42987e-10 5.70056e-11
4421 1 0.000635 0.0132607 -0.00630261 -0.00600333 4.5634e-10 -1.7172e-10 -8.76899e-10 8.60216e-10 2.20868e-11
2196 1 0.000635 -0.0152068 -0.00507832 -0.00582275 -8.06431e-10 1.4473e-10 -3.0628e-09 8.67278e-12 1.35139e-11
2364 1 0.000635 -0.0130606 -0.00507865 -0.00630937 -3.69897e-10 -1.83858e-11 -2.00571e-09 8.1366e-11 6.83254e-11
2533 1 0.000635 -0.0108715 -0.00508 -0.00648 -5.40039e-06 -3.15696e-06 -1.89677e-06 6.71581e-11 1.73629e-13
2704 1 0.000635 -0.00867182 -0.00508 -0.00648 -6.19774e-17 -2.3845e-17 2.16e-11 0 1.42216e-35
2875 1 0.000635 -0.00647211 -0.00508 -0.00648 -1.44605e-16 -2.38442e-17 2.16e-11 0 3.49075e-35
3047 1 0.000635 -0.00427241 -0.00508 -0.00648 -1.03287e-16 -2.38433e-17 2.16e-11 1.57928e-24 2.45645e-35
3220 1 0.000635 -0.0020727 -0.00508 -0.00648 -3.38813e-21 -2.38442e-17 2.16e-11 0 2.58574e-36
3393 1 0.000635 0.000127 -0.00508 -0.00648 0 -2.38442e-17 2.16e-11 0 2.58574e-36
3566 1 0.000635 0.0023267 -0.00508 -0.00648 -3.38813e-21 -2.38459e-17 2.16e-11 0 2.58574e-36
3739 1 0.000635 0.00452641 -0.00508 -0.00648 4.13081e-17 -2.38433e-17 2.16e-11 5.26426e-25 2.84431e-35
3911 1 0.000635 0.00672611 -0.00508 -0.00648 6.19859e-17 -2.38442e-17 2.16e-11 0 1.42216e-35
4082 1 0.000635 0.00892582 -0.00508 -0.00648 -8.47033e-21 -2.3845e-17 2.16e-11 0 2.58574e-36
4253 1 0.000635 0.0111255 -0.00508 -0.00648 -2.40994e-05 1.38092e-05 -5.41759e-06 2.7313e-10 3.54648e-12
4422 1 0.000635 0.0133168 -0.00507837 -0.00633803 -2.10183e-11 1.18624e-10 2.88567e-10 6.68405e-10 2.08024e-11
2197 1 0.000635 -0.0151979 -0.00380907 -0.00578984 1.86252e-10 1.76361e-11 9.10239e-10 3.1817e-12 7.11379e-12
2280 1 0.000635 -0.0141331 -0.00444367 -0.00606569 -4.98949e-10 3.17361e-11 -2.15444e-09 2.30915e-11 1.88234e-11
2365 1 0.000635 -0.0130557 -0.00380949 -0.00629263 -3.46489e-11 -1.10372e-11 -9.32476e-11 1.13465e-10 2.18083e-11
2449 1 0.000635 -0.0119714 -0.004445 -0.00648 -0.000111165 -5.69591e-05 2.49139e-05 1.03843e-10 4.93242e-11
2534 1 0.000635 -0.0108715 -0.00381 -0.00648 -5.3468e-08 -2.97255e-08 -3.14381e-06 9.41593e-11 4.65433e-35
2619 1 0.000635 -0.00977167 -0.004445 -0.00648 -1.39618e-09 2.41825e-09 -2.97845e-07 1.67712e-12 6.01185e-35
2705 1 0.000635 -0.00867182 -0.00381 -0.00648 -8.2623e-17 0 2.16e-11 1.05285e-24 2.06859e-35
2790 1 0.000635 -0.00757197 -0.004445 -0.00648 1.44602e-16 -5.96282e-17 2.16e-11 5.26426e-25 3.74932e-35
2876 1 0.000635 -0.00647211 -0.00381 -0.00648 -1.44605e-16 0 2.16e-11 0 3.23218e-35
2961 1 0.000635 -0.00537226 -0.004445 -0.00648 1.44604e-16 -5.9629e-17 2.16e-11 5.26426e-25 3.74932e-35
3048 1 0.000635 -0.00427241 -0.00381 -0.00648 -1.03291e-16 0 2.16e-11 0 1.68073e-35
3134 1 0.000635 -0.00317256 -0.004445 -0.00648 3.09963e-17 -5.36693e-17 2.16e-11 1.57928e-24 8.40366e-36
3221 1 0.000635 -0.0020727 -0.00381 -0.00648 -6.77626e-21 0 2.16e-11 2.10571e-24 0
3307 1 0.000635 -0.000972852 -0.004445 -0.00648 0 -4.77053e-17 2.16e-11 1.05285e-24 5.17148e-36
3394 1 0.000635 0.000127 -0.00381 -0.00648 0 0 2.16e-11 1.05285e-24 0
3480 1 0.000635 0.00122685 -0.004445 -0.00648 0 -4.77053e-17 2.16e-11 1.05285e-24 5.17148e-36
3567 1 0.000635 0.0023267 -0.00381 -0.00648 0 0 2.16e-11 2.10571e-24 0
3653 1 0.000635 0.00342656 -0.004445 -0.00648 3.09811e-17 -5.36701e-17 2.16e-11 1.05285e-24 8.40366e-36
3740 1 0.000635 0.00452641 -0.00381 -0.00648 4.13217e-17 7.70372e-34 2.16e-11 0 1.29287e-35
3826 1 0.000635 0.00562626 -0.004445 -0.00648 -1.44597e-16 -5.9629e-17 2.16e-11 5.26426e-25 3.74932e-35
3912 1 0.000635 0.00672611 -0.00381 -0.00648 8.26298e-17 0 2.16e-11 1.05285e-24 2.06859e-35
3997 1 0.000635 0.00782597 -0.004445 -0.00648 -3.38813e-21 -4.77061e-17 2.16e-11 1.05285e-24 5.17148e-36
4083 1 0.000635 0.00892582 -0.00381 -0.00648 -6.77626e-21 0 2.16e-11 1.05285e-24 0
4168 1 0.000635 0.0100257 -0.004445 -0.00648 4.76626e-09 8.25541e-09 -3.43146e-07 2.22771e-12 6.01185e-35
4254 1 0.000635 0.0111255 -0.00381 -0.00648 2.78317e-08 -5.04689e-09 -2.3239e-06 5.15107e-11 4.65433e-35
4338 1 0.000635 0.0122254 -0.004445 -0.00648 4.97308e-05 -1.56718e-05 4.2492e-06 5.59001e-10 3.42552e-11
4423 1 0.000635 0.0133212 -0.00380907 -0.00637577 1.97452e-10 6.49561e-11 -1.83018e-09 3.60156e-10 5.23369e-11
4507 1 0.000635 0.0144034 -0.00444241 -0.00617369 -2.428e-10 2.05233e-10 1.02345e-09 5.88217e-10 1.23846e-11
4591 1 0.000635 0.0154835 -0.00380789 -0.00596489 -8.47646e-10 3.39961e-10 3.18081e-09 3.65488e-10 2.05088e-11
2198 1 0.000635 -0.015194 -0.00253947 -0.00577576 1.04248e-10 1.16542e-11 8.00859e-10 2.50576e-12 4.76696e-12
2281 1 0.000635 -0.014128 -0.00317432 -0.00604709 8.60291e-11 3.33112e-12 5.18969e-10 1.31632e-11 8.90275e-12
2366 1 0.000635 -0.0130556 -0.00253975 -0.00629389 -1.0705e-10 6.08977e-12 -3.85196e-10 1.15737e-10 4.48617e-12
2450 1 0.000635 -0.0119714 -0.003175 -0.00648 -2.48777e-05 4.40859e-06 9.69563e-06 1.13278e-10 2.1682e-12
2535 1 0.000635 -0.0108715 -0.00254 -0.00648 -6.63319e-08 -2.84619e-09 -3.27358e-06 1.01982e-10 6.33506e-35
2620 1 0.000635 -0.00977167 -0.003175 -0.00648 -1.3427e-16 4.1748e-17 2.16e-11 5.26426e-25 5.81792e-35
2706 1 0.000635 -0.00867182 -0.00254 -0.00648 -7.2301e-17 -5.97417e-18 2.16e-11 0 1.61609e-35
2791 1 0.000635 -0.00757197 -0.003175 -0.00648 1.44602e-16 4.77053e-17 2.16e-11 5.26426e-25 3.55539e-35
2877 1 0.000635 -0.00647211 -0.00254 -0.00648 -1.44605e-16 -1.19365e-17 2.16e-11 0 3.23218e-35
2962 1 0.000635 -0.00537226 -0.003175 -0.00648 1.44604e-16 4.7707e-17 2.16e-11 0 3.55539e-35
3049 1 0.000635 -0.00427241 -0.00254 -0.00648 -1.03284e-16 -1.19373e-17 2.16e-11 5.26426e-25 1.93931e-35
3135 1 0.000635 -0.00317256 -0.003175 -0.00648 3.09963e-17 4.17472e-17 2.16e-11 1.05285e-24 6.46435e-36
3222 1 0.000635 -0.0020727 -0.00254 -0.00648 0 -1.43996e-20 2.16e-11 0 0
3308 1 0.000635 -0.000972852 -0.003175 -0.00648 0 3.57823e-17 2.16e-11 1.05285e-24 3.23218e-36
3395 1 0.000635 0.000127 -0.00254 -0.00648 0 -1.35525e-20 2.16e-11 0 0
3481 1 0.000635 0.00122685 -0.003175 -0.00648 0 3.57823e-17 2.16e-11 1.05285e-24 3.23218e-36
3568 1 0.000635 0.0023267 -0.00254 -0.00648 -6.77626e-21 -1.35525e-20 2.16e-11 0 0
3654 1 0.000635 0.00342656 -0.003175 -0.00648 3.09777e-17 4.17463e-17 2.16e-11 1.05285e-24 6.46435e-36
3741 1 0.000635 0.00452641 -0.00254 -0.00648 4.13115e-17 -1.19382e-17 2.16e-11 5.26426e-25 1.93931e-35
3827 1 0.000635 0.00562626 -0.003175 -0.00648 -1.44595e-16 4.77053e-17 2.16e-11 5.26426e-25 3.55539e-35
3913 1 0.000635 0.00672611 -0.00254 -0.00648 7.23095e-17 -5.97502e-18 2.16e-11 0 1.61609e-35
3998 1 0.000635 0.00782597 -0.003175 -0.00648 0 3.57823e-17 2.16e-11 1.05285e-24 3.23218e-36
4084 1 0.000635 0.00892582 -0.00254 -0.00648 -8.47033e-21 -1.27055e-20 2.16e-11 0 0
4169 1 0.000635 0.0100257 -0.003175 -0.00648 1.3427e-16 4.1748e-17 2.16e-11 5.26426e-25 5.81792e-35
4255 1 0.000635 0.0111255 -0.00254 -0.00648 2.30205e-08 -2.1059e-08 -2.0814e-06 4.16163e-11 6.33506e-35
4339 1 0.000635 0.0122254 -0.003175 -0.00648 4.79706e-05 1.14486e-05 7.34175e-06 5.97298e-11 8.24352e-12
4424 1 0.000635 0.013319 -0.00253954 -0.00635842 -3.24756e-10 3.83645e-11 2.13663e-09 6.94146e-11 1.72388e-11
4508 1 0.000635 0.0144094 -0.0031736 -0.00620678 -3.13781e-10 1.64521e-10 1.34434e-09 4.56988e-10 6.43174e-11
4592 1 0.000635 0.0154884 -0.00253886 -0.00598626 1.86233e-12 1.35651e-10 3.24669e-10 1.69903e-10 4.54347e-11
2199 1 0.000635 -0.0151929 -0.00126974 -0.00577235 6.42321e-10 -1.56093e-12 3.04372e-09 2.06188e-12 4.0097e-12
2282 1 0.000635 -0.0141272 -0.00190465 -0.00604503 -3.61194e-11 -7.21549e-12 2.31891e-10 1.49097e-11 4.79494e-12
2367 1 0.000635 -0.013056 -0.0012699 -0.00629613 3.4342e-10 1.16384e-11 1.99895e-09 1.15082e-10 2.81623e-12
2451 1 0.000635 -0.0119714 -0.001905 -0.00648 -1.65308e-05 4.20723e-06 8.23814e-06 1.13626e-10 1.04901e-12
2536 1 0.000635 -0.0108715 -0.00127 -0.00648 -6.67762e-08 1.92627e-10 -3.25632e-06 1.00905e-10 6.33506e-35
2621 1 0.000635 -0.00977167 -0.001905 -0.00648 -1.44592e-16 -1.19229e-17 2.16e-11 5.26426e-25 6.39971e-35
2707 1 0.000635 -0.00867182 -0.00127 -0.00648 -7.2301e-17 5.96909e-18 2.16e-11 5.26426e-25 1.61609e-35
2792 1 0.000635 -0.00757197 -0.001905 -0.00648 1.44605e-16 -1.19229e-17 2.16e-11 0 3.29682e-35
2878 1 0.000635 -0.00647211 -0.00127 -0.00648 -1.44605e-16 1.19331e-17 2.16e-11 0 3.23218e-35
2963 1 0.000635 -0.00537226 -0.001905 -0.00648 1.44602e-16 -1.19246e-17 2.16e-11 0 3.29682e-35
3050 1 0.000635 -0.00427241 -0.00127 -0.00648 -1.13613e-16 5.96993e-18 2.16e-11 0 2.13324e-35
3136 1 0.000635 -0.00317256 -0.001905 -0.00648 4.13081e-17 -1.19229e-17 2.16e-11 0 5.81792e-36
3223 1 0.000635 -0.0020727 -0.00127 -0.00648 0 7.6233e-21 2.16e-11 0 0
3309 1 0.000635 -0.000972852 -0.001905 -0.00648 0 -1.19229e-17 2.16e-11 0 6.46435e-37
3396 1 0.000635 0.000127 -0.00127 -0.00648 0 6.77626e-21 2.16e-11 0 0
3482 1 0.000635 0.00122685 -0.001905 -0.00648 0 -1.19229e-17 2.16e-11 0 6.46435e-37
3569 1 0.000635 0.0023267 -0.00127 -0.00648 -6.77626e-21 6.77626e-21 2.16e-11 0 0
3655 1 0.000635 0.00342656 -0.001905 -0.00648 2.06608e-17 -1.19229e-17 2.16e-11 0 1.93931e-36
3742 1 0.000635 0.00452641 -0.00127 -0.00648 4.13149e-17 1.19331e-17 2.16e-11 5.26426e-25 1.93931e-35
3828 1 0.000635 0.00562626 -0.001905 -0.00648 -1.44599e-16 -1.19229e-17 2.16e-11 0 3.29682e-35
3914 1 0.000635 0.00672611 -0.00127 -0.00648 7.23078e-17 5.96909e-18 2.16e-11 5.26426e-25 1.61609e-35
3999 1 0.000635 0.00782597 -0.001905 -0.00648 -6.77626e-21 -1.19229e-17 2.16e-11 5.26426e-25 6.46435e-37
4085 1 0.000635 0.00892582 -0.00127 -0.00648 -6.77626e-21 6.77626e-21 2.16e-11 0 0
4170 1 0.000635 0.0100257 -0.001905 -0.00648 1.44599e-16 -1.19229e-17 2.16e-11 0 6.39971e-35
4256 1 0.000635 0.0111255 -0.00127 -0.00648 2.96141e-08 -1.02091e-08 -2.25585e-06 4.83619e-11 6.33506e-35
4340 1 0.000635 0.0122254 -0.001905 -0.00648 2.63179e-05 1.45562e-06 6.76854e-06 5.36448e-11 2.17219e-12
4425 1 0.000635 0.0133176 -0.00126982 -0.00634817 -1.76953e-11 2.84623e-11 8.40538e-11 6.01974e-11 4.07321e-12
4509 1 0.000635 0.0144044 -0.00190441 -0.00617674 -2.08485e-10 7.59655e-11 1.30759e-09 2.58324e-11 1.45663e-11
4593 1 0.000635 0.015483 -0.00126961 -0.00595808 -2.53487e-10 8.12385e-11 1.34822e-09 1.32207e-11 1.06444e-11
2200 1 0.000635 -0.0151928 1.26349e-15 -0.00577202 7.16852e-10 -2.99745e-15 3.40518e-09 1.97713e-12 3.87479e-12
2283 1 0.000635 -0.0141273 -0.000634892 -0.006046 -1.0085e-10 -4.34584e-12 2.14988e-10 1.55481e-11 3.93029e-12
2368 1 0.000635 -0.0130561 4.97963e-16 -0.00629684 5.37351e-10 -9.43391e-14 3.04452e-09 1.1491e-10 2.57746e-12
2452 1 0.000635 -0.0119714 -0.000635 -0.00648 -1.639e-05 1.37894e-06 8.07222e-06 1.13577e-10 8.88399e-13
2622 1 0.000635 -0.00977167 -0.000635 -0.00648 -1.44599e-16 -8.47033e-21 2.16e-11 0 6.33506e-35
2793 1 0.000635 -0.00757197 -0.000635 -0.00648 1.44604e-16 -1.19339e-17 2.16e-11 5.26426e-25 3.23218e-35
2964 1 0.000635 -0.00537226 -0.000635 -0.00648 1.44604e-16 -1.19365e-17 2.16e-11 0 3.23218e-35
3137 1 0.000635 -0.00317256 -0.000635 -0.00648 4.13183e-17 -8.47033e-21 2.16e-11 0 5.17148e-36
3310 1 0.000635 -0.000972852 -0.000635 -0.00648 0 -8.47033e-21 2.16e-11 0 0
3483 1 0.000635 0.00122685 -0.000635 -0.00648 0 -8.47033e-21 2.16e-11 0 0
3656 1 0.000635 0.00342656 -0.000635 -0.00648 3.09811e-17 -5.97078e-18 2.16e-11 5.26426e-25 3.23218e-36
3829 1 0.000635 0.00562626 -0.000635 -0.00648 -1.44597e-16 -1.19339e-17 2.16e-11 5.26426e-25 3.23218e-35
4000 1 0.000635 0.00782597 -0.000635 -0.00648 0 -8.47033e-21 2.16e-11 0 0
4171 1 0.000635 0.0100257 -0.000635 -0.00648 1.44599e-16 -8.47033e-21 2.16e-11 0 6.33506e-35
4341 1 0.000635 0.0122254 -0.000635 -0.00648 1.29179e-05 4.50233e-07 5.46444e-06 5.86592e-11 5.29373e-13
4426 1 0.000635 0.0133172 -3.64415e-16 -0.00634575 3.01108e-10 7.0059e-14 -2.13254e-09 6.22367e-11 2.01758e-12
4510 1 0.000635 0.0144014 -0.000634857 -0.00615923 2.5374e-10 4.87946e-11 -1.4811e-09 1.22151e-11 4.61699e-12
4594 1 0.000635 0.0154805 1.72736e-15 -0.00594524 -1.4074e-10 -1.76529e-14 8.77306e-10 5.16616e-12 5.24326e-12
2284 1 0.000635 -0.0141273 0.000634892 -0.006046 -1.00826e-10 4.3261e-12 2.14968e-10 1.55481e-11 3.93029e-12
2453 1 0.000635 -0.0119714 0.000635 -0.00648 -1.639e-05 -1.37894e-06 8.07222e-06 1.13577e-10 8.88399e-13
2537 1 0.000635 -0.0108715 0 -0.00648 -6.64034e-08 -2.72999e-18 -3.24288e-06 1.00062e-10 6.33506e-35
2623 1 0.000635 -0.00977167 0.000635 -0.00648 -1.44599e-16 -3.38813e-21 2.16e-11 0 6.33506e-35
2708 1 0.000635 -0.00867182 0 -0.00648 -8.26247e-17 5.92923e-21 2.16e-11 0 2.06859e-35
2794 1 0.000635 -0.00757197 0.000635 -0.00648 1.44602e-16 -3.38813e-21 2.16e-11 0 3.23218e-35
2879 1 0.000635 -0.00647211 0 -0.00648 -1.44605e-16 5.0822e-21 2.16e-11 0 3.23218e-35
2965 1 0.000635 -0.00537226 0.000635 -0.00648 1.44602e-16 -3.38813e-21 2.16e-11 0 3.23218e-35
3051 1 0.000635 -0.00427241 0 -0.00648 -1.03282e-16 5.92923e-21 2.16e-11 0 1.68073e-35