ITEM: TIMESTEP
990000
ITEM: NUMBER OF ATOMS
6793
ITEM: BOX BOUNDS ff ff ff
-8.9999999999999997e-02 8.9999999999999997e-02
-8.9999999999999997e-02 8.9999999999999997e-02
-4.0000000000000001e-02 4.0000000000000001e-02
ITEM: ATOMS id type radius x y z fx fy fz c_bendingE c_stretchingE
3213 1 0.000635 -0.00207045 -0.0139521 -0.0104873 -2.6978e-11 -9.64624e-12 -5.67861e-11 2.31917e-09 3.27906e-10
3299 1 0.000635 -0.000974255 -0.0145884 -0.010462 -2.86254e-11 6.68569e-12 -4.73753e-11 2.22155e-09 1.26069e-10
3386 1 0.000635 0.000126187 -0.0139655 -0.0105755 -5.13455e-12 -4.47801e-12 -8.60516e-11 1.68468e-09 3.36041e-11
3041 1 0.000635 -0.00426426 -0.0126819 -0.0104859 -8.98842e-12 -1.37136e-11 -9.04804e-11 1.37228e-09 1.20803e-10
3127 1 0.000635 -0.0031662 -0.0133159 -0.0104855 6.43791e-12 9.61192e-12 2.81836e-11 1.66628e-09 3.26699e-10
3214 1 0.000635 -0.0020727 -0.0127 -0.010692 -9.51471e-05 1.65524e-05 8.10298e-07 1.96395e-09 6.99676e-11
3300 1 0.000635 -0.00097324 -0.0133349 -0.0106633 -5.08569e-12 1.60312e-11 1.29072e-10 1.46176e-09 2.95932e-11
3387 1 0.000635 0.000127 -0.0127 -0.010692 -2.95163e-05 -6.39276e-05 4.18443e-06 1.61754e-10 1.53661e-11
3473 1 0.000635 0.00122608 -0.0133336 -0.010633 8.01271e-12 -4.41383e-11 -3.30463e-10 1.81518e-10 8.45896e-11
3560 1 0.000635 0.0023267 -0.0127 -0.010692 6.15249e-05 -0.000270782 8.94812e-05 2.76933e-10 2.56991e-10
3646 1 0.000635 0.00341485 -0.0133073 -0.0104333 -4.74744e-11 9.38488e-11 3.90703e-10 2.50299e-10 1.98349e-10
3733 1 0.000635 0.00451931 -0.0126847 -0.0104988 -1.6759e-11 2.05772e-11 1.41246e-10 1.74209e-10 3.06207e-11
2870 1 0.000635 -0.0064629 -0.0114153 -0.0104986 -2.62462e-11 -8.78851e-12 -1.00726e-10 1.08428e-09 3.88624e-11
2955 1 0.000635 -0.00536326 -0.0120484 -0.0104904 -3.07148e-11 -2.36668e-11 -1.59299e-10 1.19264e-09 4.99598e-11
3042 1 0.000635 -0.00427241 -0.01143 -0.010692 -3.70376e-06 6.09616e-05 -1.19492e-05 1.0099e-09 1.89041e-11
3128 1 0.000635 -0.00317256 -0.012065 -0.010692 -3.97906e-05 9.35058e-05 -1.52986e-05 1.29537e-09 7.20774e-11
3215 1 0.000635 -0.0020727 -0.01143 -0.010692 3.10138e-08 -8.82504e-08 -3.62414e-06 1.25136e-10 5.17148e-36
3301 1 0.000635 -0.000972852 -0.012065 -0.010692 5.03884e-08 -1.106e-05 -3.10821e-06 1.13609e-10 5.42664e-13
3388 1 0.000635 0.000127 -0.01143 -0.010692 7.16688e-09 -1.69407e-21 -1.02717e-06 1.99826e-11 5.17148e-36
3474 1 0.000635 0.00122685 -0.012065 -0.010692 -3.23222e-08 3.6889e-06 -3.64451e-06 1.80155e-10 6.91959e-14
3561 1 0.000635 0.0023267 -0.01143 -0.010692 8.76516e-08 -7.39801e-08 -4.66155e-06 2.2402e-10 5.17148e-36
3647 1 0.000635 0.00342656 -0.012065 -0.010692 4.85659e-05 2.82876e-05 2.39623e-06 2.05581e-10 2.88252e-11
3734 1 0.000635 0.00452641 -0.01143 -0.010692 2.29891e-05 1.31167e-05 3.25141e-06 1.43706e-10 6.37857e-12
3820 1 0.000635 0.00562137 -0.0120551 -0.0105357 -1.18252e-11 3.43927e-13 7.19673e-11 1.30391e-10 7.39481e-12
3906 1 0.000635 0.00672266 -0.0114235 -0.0105635 2.05521e-11 -6.70811e-11 -4.89288e-10 1.11192e-10 2.25012e-12
2785 1 0.000635 -0.00756287 -0.0107823 -0.010509 -2.48058e-11 6.83455e-12 -7.29599e-12 1.01882e-09 5.65803e-11
2956 1 0.000635 -0.00537226 -0.010795 -0.010692 2.33209e-05 3.7196e-05 -9.68604e-06 8.56025e-10 6.4484e-12
3129 1 0.000635 -0.00317256 -0.010795 -0.010692 -1.26614e-08 -7.54004e-08 -3.60216e-06 1.23634e-10 6.46435e-36
3302 1 0.000635 -0.000972852 -0.010795 -0.010692 3.41531e-09 0 -2.53371e-07 1.21376e-12 5.17148e-36
3475 1 0.000635 0.00122685 -0.010795 -0.010692 6.83676e-09 1.69407e-21 -5.19992e-07 5.11383e-12 5.17148e-36
3648 1 0.000635 0.00342656 -0.010795 -0.010692 7.62928e-08 -4.67992e-08 -3.66145e-06 1.35855e-10 1.0343e-35
3821 1 0.000635 0.00562626 -0.010795 -0.010692 1.35039e-05 4.96499e-06 3.24973e-06 9.66144e-11 1.8463e-12
3992 1 0.000635 0.00782395 -0.0107916 -0.010594 -2.01412e-11 3.99803e-11 3.38595e-10 5.80941e-10 4.4416e-11
2615 1 0.000635 -0.00976237 -0.00951498 -0.0105225 -5.1324e-13 4.45067e-12 -7.14002e-12 1.08346e-09 1.25811e-10
2700 1 0.000635 -0.00866285 -0.010149 -0.0105186 2.95585e-12 3.2593e-11 1.4685e-10 9.99734e-10 8.6988e-11
2786 1 0.000635 -0.00757197 -0.009525 -0.010692 6.35001e-05 6.33664e-06 -7.02243e-06 6.59519e-10 2.90481e-11
2871 1 0.000635 -0.00647211 -0.01016 -0.010692 4.51691e-05 1.98991e-05 -8.15257e-06 7.52673e-10 1.30236e-11
2957 1 0.000635 -0.00537226 -0.009525 -0.010692 -5.08416e-08 -4.95616e-08 -3.39372e-06 1.09905e-10 3.74932e-35
3043 1 0.000635 -0.00427241 -0.01016 -0.010692 -3.59312e-08 -6.23489e-08 -3.52558e-06 1.18509e-10 2.71503e-35
3130 1 0.000635 -0.00317256 -0.009525 -0.010692 2.0671e-17 0 2.16e-11 1.05285e-24 6.46435e-36
3216 1 0.000635 -0.0020727 -0.01016 -0.010692 -6.77626e-21 0 2.16e-11 0 5.17148e-36
3303 1 0.000635 -0.000972852 -0.009525 -0.010692 0 0 2.16e-11 0 5.17148e-36
3389 1 0.000635 0.000127 -0.01016 -0.010692 0 0 2.16e-11 0 5.17148e-36
3476 1 0.000635 0.00122685 -0.009525 -0.010692 0 0 2.16e-11 0 5.17148e-36
3562 1 0.000635 0.0023267 -0.01016 -0.010692 0 0 2.16e-11 0 5.17148e-36
3649 1 0.000635 0.00342656 -0.009525 -0.010692 4.13115e-17 0 2.16e-11 0 1.0343e-35
3735 1 0.000635 0.00452641 -0.01016 -0.010692 4.54087e-08 -2.97713e-08 -2.8376e-06 7.96536e-11 3.10289e-35
3822 1 0.000635 0.00562626 -0.009525 -0.010692 3.4731e-08 -1.45807e-08 -2.24271e-06 5.0235e-11 3.74932e-35
3907 1 0.000635 0.00672611 -0.01016 -0.010692 1.68873e-05 -1.11882e-05 3.60319e-06 7.86366e-11 1.74726e-12
3993 1 0.000635 0.00782597 -0.009525 -0.010692 7.63142e-06 -2.73121e-05 1.63384e-06 2.35061e-10 2.72349e-12
4078 1 0.000635 0.00892443 -0.0101558 -0.0105985 -5.03766e-12 1.29804e-13 4.31134e-11 1.12304e-09 5.39417e-11
4164 1 0.000635 0.0100139 -0.00950963 -0.0104879 -2.79521e-11 1.75e-11 1.23651e-10 1.0262e-09 7.8432e-11
2446 1 0.000635 -0.0119633 -0.00825049 -0.0105043 -3.43444e-11 -1.43328e-12 1.22337e-11 1.73134e-09 1.30327e-11
2530 1 0.000635 -0.0108622 -0.00888237 -0.0105199 -7.23033e-11 -1.06278e-10 -4.3834e-10 1.45202e-09 4.32737e-11
2616 1 0.000635 -0.00977167 -0.008255 -0.010692 -3.30843e-06 -6.53933e-05 1.00536e-05 4.22776e-10 2.64525e-11
2701 1 0.000635 -0.00867182 -0.00889 -0.010692 7.94078e-05 -5.53349e-06 -6.37778e-06 5.51152e-10 5.06798e-11
2787 1 0.000635 -0.00757197 -0.008255 -0.010692 -6.23863e-08 -3.07856e-08 -3.10967e-06 9.20943e-11 4.0079e-35
2872 1 0.000635 -0.00647211 -0.00889 -0.010692 -5.90538e-08 -3.84663e-08 -3.23586e-06 9.99197e-11 3.74932e-35
2958 1 0.000635 -0.00537226 -0.008255 -0.010692 1.44607e-16 -7.15799e-17 2.16e-11 5.26426e-25 4.0079e-35
3044 1 0.000635 -0.00427241 -0.00889 -0.010692 -1.03289e-16 -4.76841e-17 2.16e-11 1.05285e-24 2.71503e-35
3131 1 0.000635 -0.00317256 -0.008255 -0.010692 3.09912e-17 -7.75431e-17 2.16e-11 5.26426e-25 1.87466e-35
3217 1 0.000635 -0.0020727 -0.00889 -0.010692 -3.38813e-21 -4.76866e-17 2.16e-11 0 5.17148e-36
3304 1 0.000635 -0.000972852 -0.008255 -0.010692 0 -7.15833e-17 2.16e-11 0 1.0343e-35
3390 1 0.000635 0.000127 -0.00889 -0.010692 0 -4.76866e-17 2.16e-11 0 5.17148e-36
3477 1 0.000635 0.00122685 -0.008255 -0.010692 0 -7.15833e-17 2.16e-11 0 1.0343e-35
3563 1 0.000635 0.0023267 -0.00889 -0.010692 0 -4.76858e-17 2.16e-11 0 5.17148e-36
3650 1 0.000635 0.00342656 -0.008255 -0.010692 4.13098e-17 -7.15825e-17 2.16e-11 0 1.0343e-35
3736 1 0.000635 0.00452641 -0.00889 -0.010692 4.13115e-17 -4.76841e-17 2.16e-11 0 3.10289e-35
3823 1 0.000635 0.00562626 -0.008255 -0.010692 -1.446e-16 -7.15791e-17 2.16e-11 0 4.0079e-35
3908 1 0.000635 0.00672611 -0.00889 -0.010692 1.75754e-08 -2.22832e-08 -1.9579e-06 3.72301e-11 1.68073e-35
3994 1 0.000635 0.00782597 -0.008255 -0.010692 -1.5016e-08 -5.67646e-08 -2.66535e-06 7.59533e-11 1.0343e-35
4079 1 0.000635 0.00892582 -0.00889 -0.010692 -6.302e-05 7.54488e-05 -1.64915e-05 5.88776e-10 3.21324e-11
4165 1 0.000635 0.0100257 -0.008255 -0.010692 0.000202423 3.95452e-05 4.52933e-05 8.24264e-10 2.40286e-10
2362 1 0.000635 -0.0130625 -0.00761566 -0.0104527 -3.12163e-12 2.20449e-11 2.29432e-10 1.60641e-09 5.33896e-11
2447 1 0.000635 -0.0119695 -0.00698464 -0.0106055 -3.46318e-12 1.38483e-11 2.09964e-10 2.46218e-10 4.12893e-11
2531 1 0.000635 -0.0108712 -0.00761995 -0.0106587 3.01336e-11 2.04765e-11 7.15364e-10 3.07532e-10 6.20263e-12
2617 1 0.000635 -0.00977167 -0.006985 -0.010692 -7.59881e-06 -4.34346e-06 -2.10493e-06 6.81515e-11 3.41276e-13
2702 1 0.000635 -0.00867182 -0.00762 -0.010692 -7.04273e-08 -1.4965e-08 -3.04635e-06 8.82238e-11 2.9736e-35
2788 1 0.000635 -0.00757197 -0.006985 -0.010692 1.44605e-16 -2.38958e-17 2.16e-11 0 4.0079e-35
2873 1 0.000635 -0.00647211 -0.00762 -0.010692 -1.44609e-16 2.38967e-17 2.16e-11 0 4.0079e-35
2959 1 0.000635 -0.00537226 -0.006985 -0.010692 1.44605e-16 -2.38958e-17 2.16e-11 0 4.0079e-35
3045 1 0.000635 -0.00427241 -0.00762 -0.010692 -1.13623e-16 2.98573e-17 2.16e-11 0 2.90896e-35
3132 1 0.000635 -0.00317256 -0.006985 -0.010692 3.09912e-17 -2.98573e-17 2.16e-11 0 1.87466e-35
3218 1 0.000635 -0.0020727 -0.00762 -0.010692 -1.69407e-21 2.38958e-17 2.16e-11 0 1.0343e-35
3305 1 0.000635 -0.000972852 -0.006985 -0.010692 0 -2.38967e-17 2.16e-11 0 1.0343e-35
3391 1 0.000635 0.000127 -0.00762 -0.010692 0 2.38967e-17 2.16e-11 0 1.0343e-35
3478 1 0.000635 0.00122685 -0.006985 -0.010692 0 -2.38967e-17 2.16e-11 0 1.0343e-35
3564 1 0.000635 0.0023267 -0.00762 -0.010692 0 2.38967e-17 2.16e-11 0 1.0343e-35
3651 1 0.000635 0.00342656 -0.006985 -0.010692 4.13081e-17 -2.38967e-17 2.16e-11 0 1.0343e-35
3737 1 0.000635 0.00452641 -0.00762 -0.010692 4.13217e-17 2.38958e-17 2.16e-11 0 2.06859e-35
3824 1 0.000635 0.00562626 -0.006985 -0.010692 -1.44599e-16 -2.3895e-17 2.16e-11 0 4.0079e-35
3909 1 0.000635 0.00672611 -0.00762 -0.010692 6.19757e-17 2.38958e-17 2.16e-11 0 2.9736e-35
3995 1 0.000635 0.00782597 -0.006985 -0.010692 -6.77626e-21 -2.38967e-17 2.16e-11 0 1.0343e-35
4080 1 0.000635 0.00892582 -0.00762 -0.010692 -5.06585e-08 -1.09033e-07 -4.99559e-06 3.54123e-10 1.0343e-35
4166 1 0.000635 0.0100257 -0.006985 -0.010692 -6.7593e-05 3.87599e-05 -1.28468e-05 6.34799e-10 2.82044e-11
4251 1 0.000635 0.0111203 -0.00761456 -0.0105709 -7.54465e-13 1.78062e-12 1.87737e-11 1.00357e-09 3.63886e-10
2363 1 0.000635 -0.0130571 -0.00634639 -0.0104575 -7.14719e-11 8.4199e-12 -1.15412e-10 2.71234e-10 7.02502e-11
2448 1 0.000635 -0.0119707 -0.00571542 -0.0106515 5.43661e-11 1.86315e-11 7.31671e-10 1.46313e-10 5.8618e-11
2532 1 0.000635 -0.0108715 -0.00635 -0.010692 -4.66559e-05 -5.6831e-05 4.33946e-06 8.10889e-11 2.01489e-11
2618 1 0.000635 -0.00977167 -0.005715 -0.010692 -2.75924e-09 4.77915e-09 -7.61813e-07 1.09813e-11 6.85221e-35
2703 1 0.000635 -0.00867182 -0.00635 -0.010692 -4.48085e-10 7.76106e-10 -2.93671e-07 1.63032e-12 2.9736e-35
2789 1 0.000635 -0.00757197 -0.005715 -0.010692 1.44602e-16 4.76832e-17 2.16e-11 0 3.74932e-35
2874 1 0.000635 -0.00647211 -0.00635 -0.010692 -1.44609e-16 7.15816e-17 2.16e-11 0 4.0079e-35
2960 1 0.000635 -0.00537226 -0.005715 -0.010692 1.44604e-16 4.76841e-17 2.16e-11 5.26426e-25 3.74932e-35
3046 1 0.000635 -0.00427241 -0.00635 -0.010692 -1.13621e-16 7.75431e-17 2.16e-11 0 2.90896e-35
3133 1 0.000635 -0.00317256 -0.005715 -0.010692 2.0671e-17 4.76858e-17 2.16e-11 5.26426e-25 6.46435e-36
3219 1 0.000635 -0.0020727 -0.00635 -0.010692 -5.0822e-21 7.15842e-17 2.16e-11 0 1.0343e-35
3306 1 0.000635 -0.000972852 -0.005715 -0.010692 0 4.76866e-17 2.16e-11 0 5.17148e-36
3392 1 0.000635 0.000127 -0.00635 -0.010692 0 7.1585e-17 2.16e-11 0 1.0343e-35
3479 1 0.000635 0.00122685 -0.005715 -0.010692 0 4.76866e-17 2.16e-11 0 5.17148e-36
3565 1 0.000635 0.0023267 -0.00635 -0.010692 0 7.15842e-17 2.16e-11 0 1.0343e-35
3652 1 0.000635 0.00342656 -0.005715 -0.010692 4.13098e-17 4.76858e-17 2.16e-11 0 1.0343e-35
3738 1 0.000635 0.00452641 -0.00635 -0.010692 4.13183e-17 7.15816e-17 2.16e-11 0 2.06859e-35
3825 1 0.000635 0.00562626 -0.005715 -0.010692 -1.44597e-16 4.76841e-17 2.16e-11 0 3.74932e-35
3910 1 0.000635 0.00672611 -0.00635 -0.010692 6.19774e-17 7.15825e-17 2.16e-11 0 2.9736e-35
3996 1 0.000635 0.00782597 -0.005715 -0.010692 -6.77626e-21 4.76849e-17 2.16e-11 0 5.17148e-36
4081 1 0.000635 0.00892582 -0.00635 -0.010692 -9.30256e-09 -1.61125e-08 -1.06947e-06 2.16716e-11 1.0343e-35
4167 1 0.000635 0.0100257 -0.005715 -0.010692 -2.83739e-08 -4.9145e-08 -3.03033e-06 1.76898e-10 6.85221e-35
4252 1 0.000635 0.0111255 -0.00635 -0.010692 -0.000199943 -2.32366e-05 -3.4043e-05 9.07065e-10 1.28474e-10
4337 1 0.000635 0.0122224 -0.00571636 -0.01064 1.47621e-12 -3.48477e-12 -2.91618e-11 1.28139e-09 3.15794e-10
2364 1 0.000635 -0.0130469 -0.00507696 -0.0104416 -8.46017e-11 2.29445e-11 -1.88159e-10 1.99342e-10 1.49159e-10
2533 1 0.000635 -0.0108715 -0.00508 -0.010692 -1.2627e-05 -7.38254e-06 -2.91169e-06 1.53253e-10 9.50068e-13
2704 1 0.000635 -0.00867182 -0.00508 -0.010692 -6.19774e-17 -2.3845e-17 2.16e-11 0 1.42216e-35
2875 1 0.000635 -0.00647211 -0.00508 -0.010692 -1.44605e-16 -2.38442e-17 2.16e-11 0 3.49075e-35
3047 1 0.000635 -0.00427241 -0.00508 -0.010692 -1.03287e-16 -2.38433e-17 2.16e-11 1.57928e-24 2.45645e-35
3220 1 0.000635 -0.0020727 -0.00508 -0.010692 -3.38813e-21 -2.38442e-17 2.16e-11 0 2.58574e-36
3393 1 0.000635 0.000127 -0.00508 -0.010692 0 -2.38442e-17 2.16e-11 0 2.58574e-36
3566 1 0.000635 0.0023267 -0.00508 -0.010692 -3.38813e-21 -2.38459e-17 2.16e-11 0 2.58574e-36
3739 1 0.000635 0.00452641 -0.00508 -0.010692 4.13081e-17 -2.38433e-17 2.16e-11 5.26426e-25 2.84431e-35
3911 1 0.000635 0.00672611 -0.00508 -0.010692 6.19859e-17 -2.38442e-17 2.16e-11 0 1.42216e-35
4082 1 0.000635 0.00892582 -0.00508 -0.010692 -8.47033e-21 -2.3845e-17 2.16e-11 0 2.58574e-36
4253 1 0.000635 0.0111255 -0.00508 -0.010692 -3.73092e-05 2.13463e-05 -8.67277e-06 6.12629e-10 8.52802e-12
4422 1 0.000635 0.0133075 -0.00507822 -0.0104873 1.16666e-11 -1.56512e-11 -6.61759e-11 1.64632e-09 9.30505e-11
2365 1 0.000635 -0.013036 -0.00380865 -0.0104152 5.78316e-11 3.88929e-12 2.17359e-10 2.59579e-10 4.41907e-11
2449 1 0.000635 -0.0119714 -0.004445 -0.010692 -0.000144231 -0.000100222 4.49038e-05 2.34968e-10 9.89343e-11
2534 1 0.000635 -0.0108715 -0.00381 -0.010692 -1.19133e-07 -6.10258e-08 -4.59119e-06 2.02243e-10 4.65433e-35
2619 1 0.000635 -0.00977167 -0.004445 -0.010692 -3.11713e-09 5.39902e-09 -3.57336e-07 2.41466e-12 6.01185e-35
2705 1 0.000635 -0.00867182 -0.00381 -0.010692 -8.2623e-17 0 2.16e-11 1.05285e-24 2.06859e-35
2790 1 0.000635 -0.00757197 -0.004445 -0.010692 1.44602e-16 -5.96282e-17 2.16e-11 5.26426e-25 3.74932e-35
2876 1 0.000635 -0.00647211 -0.00381 -0.010692 -1.44605e-16 0 2.16e-11 0 3.23218e-35
2961 1 0.000635 -0.00537226 -0.004445 -0.010692 1.44604e-16 -5.9629e-17 2.16e-11 5.26426e-25 3.74932e-35
3048 1 0.000635 -0.00427241 -0.00381 -0.010692 -1.03291e-16 0 2.16e-11 0 1.68073e-35
3134 1 0.000635 -0.00317256 -0.004445 -0.010692 3.09963e-17 -5.36693e-17 2.16e-11 1.57928e-24 8.40366e-36
3221 1 0.000635 -0.0020727 -0.00381 -0.010692 -6.77626e-21 0 2.16e-11 2.10571e-24 0
3307 1 0.000635 -0.000972852 -0.004445 -0.010692 0 -4.77053e-17 2.16e-11 1.05285e-24 5.17148e-36
3394 1 0.000635 0.000127 -0.00381 -0.010692 0 0 2.16e-11 1.05285e-24 0
3480 1 0.000635 0.00122685 -0.004445 -0.010692 0 -4.77053e-17 2.16e-11 1.05285e-24 5.17148e-36
3567 1 0.000635 0.0023267 -0.00381 -0.010692 0 0 2.16e-11 2.10571e-24 0
3653 1 0.000635 0.00342656 -0.004445 -0.010692 3.09811e-17 -5.36701e-17 2.16e-11 1.05285e-24 8.40366e-36
3740 1 0.000635 0.00452641 -0.00381 -0.010692 4.13217e-17 7.70372e-34 2.16e-11 0 1.29287e-35
3826 1 0.000635 0.00562626 -0.004445 -0.010692 -1.44597e-16 -5.9629e-17 2.16e-11 5.26426e-25 3.74932e-35
3912 1 0.000635 0.00672611 -0.00381 -0.010692 8.26298e-17 0 2.16e-11 1.05285e-24 2.06859e-35
3997 1 0.000635 0.00782597 -0.004445 -0.010692 -3.38813e-21 -4.77061e-17 2.16e-11 1.05285e-24 5.17148e-36
4083 1 0.000635 0.00892582 -0.00381 -0.010692 -6.77626e-21 0 2.16e-11 1.05285e-24 0
4168 1 0.000635 0.0100257 -0.004445 -0.010692 1.16761e-08 2.02237e-08 -4.59279e-07 3.99858e-12 6.01185e-35
4254 1 0.000635 0.0111255 -0.00381 -0.010692 7.25401e-08 -1.36602e-08 -3.54364e-06 1.19651e-10 4.65433e-35
4338 1 0.000635 0.0122254 -0.004445 -0.010692 9.43155e-05 -9.95386e-05 1.86359e-05 1.38044e-09 1.19921e-10
4423 1 0.000635 0.0133121 -0.00380879 -0.0105152 -9.05204e-11 -8.28062e-12 4.34372e-10 9.50239e-10 9.3976e-11
2366 1 0.000635 -0.0130375 -0.00253925 -0.0104213 1.2764e-10 2.76614e-12 4.52782e-10 2.60754e-10 1.22415e-11
2450 1 0.000635 -0.0119714 -0.003175 -0.010692 4.31383e-06 2.8334e-05 6.51793e-06 2.53195e-10 7.33911e-12
2535 1 0.000635 -0.0108715 -0.00254 -0.010692 -1.46919e-07 -2.96977e-09 -4.81114e-06 2.22186e-10 6.33506e-35
2620 1 0.000635 -0.00977167 -0.003175 -0.010692 -1.3427e-16 4.1748e-17 2.16e-11 5.26426e-25 5.81792e-35
2706 1 0.000635 -0.00867182 -0.00254 -0.010692 -7.2301e-17 -5.97417e-18 2.16e-11 0 1.61609e-35
2791 1 0.000635 -0.00757197 -0.003175 -0.010692 1.44602e-16 4.77053e-17 2.16e-11 5.26426e-25 3.55539e-35
2877 1 0.000635 -0.00647211 -0.00254 -0.010692 -1.44605e-16 -1.19365e-17 2.16e-11 0 3.23218e-35
2962 1 0.000635 -0.00537226 -0.003175 -0.010692 1.44604e-16 4.7707e-17 2.16e-11 0 3.55539e-35
3049 1 0.000635 -0.00427241 -0.00254 -0.010692 -1.03284e-16 -1.19373e-17 2.16e-11 5.26426e-25 1.93931e-35
3135 1 0.000635 -0.00317256 -0.003175 -0.010692 3.09963e-17 4.17472e-17 2.16e-11 1.05285e-24 6.46435e-36
3222 1 0.000635 -0.0020727 -0.00254 -0.010692 0 -1.43996e-20 2.16e-11 0 0
3308 1 0.000635 -0.000972852 -0.003175 -0.010692 0 3.57823e-17 2.16e-11 1.05285e-24 3.23218e-36
3395 1 0.000635 0.000127 -0.00254 -0.010692 0 -1.35525e-20 2.16e-11 0 0
3481 1 0.000635 0.00122685 -0.003175 -0.010692 0 3.57823e-17 2.16e-11 1.05285e-24 3.23218e-36
3568 1 0.000635 0.0023267 -0.00254 -0.010692 -6.77626e-21 -1.35525e-20 2.16e-11 0 0
3654 1 0.000635 0.00342656 -0.003175 -0.010692 3.09777e-17 4.17463e-17 2.16e-11 1.05285e-24 6.46435e-36
3741 1 0.000635 0.00452641 -0.00254 -0.010692 4.13115e-17 -1.19382e-17 2.16e-11 5.26426e-25 1.93931e-35
3827 1 0.000635 0.00562626 -0.003175 -0.010692 -1.44595e-16 4.77053e-17 2.16e-11 5.26426e-25 3.55539e-35
3913 1 0.000635 0.00672611 -0.00254 -0.010692 7.23095e-17 -5.97502e-18 2.16e-11 0 1.61609e-35
3998 1 0.000635 0.00782597 -0.003175 -0.010692 0 3.57823e-17 2.16e-11 1.05285e-24 3.23218e-36
4084 1 0.000635 0.00892582 -0.00254 -0.010692 -8.47033e-21 -1.27055e-20 2.16e-11 0 0
4169 1 0.000635 0.0100257 -0.003175 -0.010692 1.3427e-16 4.1748e-17 2.16e-11 5.26426e-25 5.81792e-35
4255 1 0.000635 0.0111255 -0.00254 -0.010692 6.57302e-08 -2.987e-08 -3.33634e-06 1.06412e-10 6.33506e-35
4339 1 0.000635 0.0122254 -0.003175 -0.010692 5.28451e-05 7.69467e-06 1.35066e-05 1.42953e-10 9.30874e-12
4424 1 0.000635 0.0133079 -0.00253947 -0.0104947 -4.26059e-11 -6.3006e-12 1.95627e-10 1.59714e-10 1.76788e-11
2367 1 0.000635 -0.0130381 -0.00126965 -0.0104233 6.91612e-11 -8.19807e-13 2.66175e-10 2.54568e-10 7.05934e-12
2451 1 0.000635 -0.0119714 -0.001905 -0.010692 -3.37413e-06 1.7359e-05 8.49423e-06 2.54023e-10 2.78709e-12
2536 1 0.000635 -0.0108715 -0.00127 -0.010692 -1.44366e-07 -2.32527e-09 -4.75664e-06 2.17063e-10 6.33506e-35
2621 1 0.000635 -0.00977167 -0.001905 -0.010692 -1.44592e-16 -1.19229e-17 2.16e-11 5.26426e-25 6.39971e-35
2707 1 0.000635 -0.00867182 -0.00127 -0.010692 -7.2301e-17 5.96909e-18 2.16e-11 5.26426e-25 1.61609e-35
2792 1 0.000635 -0.00757197 -0.001905 -0.010692 1.44605e-16 -1.19229e-17 2.16e-11 0 3.29682e-35
2878 1 0.000635 -0.00647211 -0.00127 -0.010692 -1.44605e-16 1.19331e-17 2.16e-11 0 3.23218e-35
2963 1 0.000635 -0.00537226 -0.001905 -0.010692 1.44602e-16 -1.19246e-17 2.16e-11 0 3.29682e-35
3050 1 0.000635 -0.00427241 -0.00127 -0.010692 -1.13613e-16 5.96993e-18 2.16e-11 0 2.13324e-35
3136 1 0.000635 -0.00317256 -0.001905 -0.010692 4.13081e-17 -1.19229e-17 2.16e-11 0 5.81792e-36
3223 1 0.000635 -0.0020727 -0.00127 -0.010692 0 7.6233e-21 2.16e-11 0 0
3309 1 0.000635 -0.000972852 -0.001905 -0.010692 0 -1.19229e-17 2.16e-11 0 6.46435e-37
3396 1 0.000635 0.000127 -0.00127 -0.010692 0 6.77626e-21 2.16e-11 0 0
3482 1 0.000635 0.00122685 -0.001905 -0.010692 0 -1.19229e-17 2.16e-11 0 6.46435e-37
3569 1 0.000635 0.0023267 -0.00127 -0.010692 -6.77626e-21 6.77626e-21 2.16e-11 0 0
3655 1 0.000635 0.00342656 -0.001905 -0.010692 2.06608e-17 -1.19229e-17 2.16e-11 0 1.93931e-36
3742 1 0.000635 0.00452641 -0.00127 -0.010692 4.13149e-17 1.19331e-17 2.16e-11 5.26426e-25 1.93931e-35
3828 1 0.000635 0.00562626 -0.001905 -0.010692 -1.44599e-16 -1.19229e-17 2.16e-11 0 3.29682e-35
3914 1 0.000635 0.00672611 -0.00127 -0.010692 7.23078e-17 5.96909e-18 2.16e-11 5.26426e-25 1.61609e-35
3999 1 0.000635 0.00782597 -0.001905 -0.010692 -6.77626e-21 -1.19229e-17 2.16e-11 5.26426e-25 6.46435e-37
4085 1 0.000635 0.00892582 -0.00127 -0.010692 -6.77626e-21 6.77626e-21 2.16e-11 0 0
4170 1 0.000635 0.0100257 -0.001905 -0.010692 1.44599e-16 -1.19229e-17 2.16e-11 0 6.39971e-35
4256 1 0.000635 0.0111255 -0.00127 -0.010692 7.69266e-08 -7.94009e-09 -3.51529e-06 1.17731e-10 6.33506e-35
4340 1 0.000635 0.0122254 -0.001905 -0.010692 1.87791e-05 1.77442e-06 9.2528e-06 1.35218e-10 1.18e-12
4425 1 0.000635 0.0133068 -0.0012698 -0.0104904 2.51132e-11 -3.36003e-12 -1.63815e-10 1.48255e-10 3.3155e-12
2452 1 0.000635 -0.0119714 -0.000635 -0.010692 -9.33386e-06 5.54789e-06 1.00478e-05 2.49674e-10 6.01723e-13
2622 1 0.000635 -0.00977167 -0.000635 -0.010692 -1.44599e-16 -8.47033e-21 2.16e-11 0 6.33506e-35
2793 1 0.000635 -0.00757197 -0.000635 -0.010692 1.44604e-16 -1.19339e-17 2.16e-11 5.26426e-25 3.23218e-35
2964 1 0.000635 -0.00537226 -0.000635 -0.010692 1.44604e-16 -1.19365e-17 2.16e-11 0 3.23218e-35
3137 1 0.000635 -0.00317256 -0.000635 -0.010692 4.13183e-17 -8.47033e-21 2.16e-11 0 5.17148e-36
3310 1 0.000635 -0.000972852 -0.000635 -0.010692 0 -8.47033e-21 2.16e-11 0 0
3483 1 0.000635 0.00122685 -0.000635 -0.010692 0 -8.47033e-21 2.16e-11 0 0
3656 1 0.000635 0.00342656 -0.000635 -0.010692 3.09811e-17 -5.97078e-18 2.16e-11 5.26426e-25 3.23218e-36
3829 1 0.000635 0.00562626 -0.000635 -0.010692 -1.44597e-16 -1.19339e-17 2.16e-11 5.26426e-25 3.23218e-35
4000 1 0.000635 0.00782597 -0.000635 -0.010692 0 -8.47033e-21 2.16e-11 0 0
4171 1 0.000635 0.0100257 -0.000635 -0.010692 1.44599e-16 -8.47033e-21 2.16e-11 0 6.33506e-35
4341 1 0.000635 0.0122254 -0.000635 -0.010692 5.19702e-06 1.28125e-06 6.57683e-06 1.43132e-10 1.11613e-13
4426 1 0.000635 0.0133067 5.27743e-18 -0.0104907 -1.13873e-11 -1.86368e-14 -1.16169e-11 1.50496e-10 1.49576e-12
2368 1 0.000635 -0.0130382 -4.75417e-16 -0.0104234 2.7048e-11 -6.39005e-15 1.19308e-10 2.52579e-10 5.84116e-12
2453 1 0.000635 -0.0119714 0.000635 -0.010692 -9.33386e-06 -5.54789e-06 1.00478e-05 2.49674e-10 6.01723e-13
2537 1 0.000635 -0.0108715 0 -0.010692 -1.43305e-07 1.24192e-17 -4.73934e-06 2.15459e-10 6.33506e-35
2623 1 0.000635 -0.00977167 0.000635 -0.010692 -1.44599e-16 -3.38813e-21 2.16e-11 0 6.33506e-35
2708 1 0.000635 -0.00867182 0 -0.010692 -8.26247e-17 5.92923e-21 2.16e-11 0 2.06859e-35
2794 1 0.000635 -0.00757197 0.000635 -0.010692 1.44602e-16 -3.38813e-21 2.16e-11 0 3.23218e-35
2879 1 0.000635 -0.00647211 0 -0.010692 -1.44605e-16 5.0822e-21 2.16e-11 0 3.23218e-35
2965 1 0.000635 -0.00537226 0.000635 -0.010692 1.44602e-16 -3.38813e-21 2.16e-11 0 3.23218e-35
3051 1 0.000635 -0.00427241 0 -0.010692 -1.03282e-16 5.92923e-21 2.16e-11 0 1.68073e-35
3138 1 0.000635 -0.00317256 0.000635 -0.010692 4.13149e-17 -3.38813e-21 2.16e-11 0 5.17148e-36
3224 1 0.000635 -0.0020727 0 -0.010692 0 6.77626e-21 2.16e-11 0 0
3311 1 0.000635 -0.000972852 0.000635 -0.010692 0 -3.38813e-21 2.16e-11 0 0
3397 1 0.000635 0.000127 0 -0.010692 0 6.77626e-21 2.16e-11 0 0
3484 1 0.000635 0.00122685 0.000635 -0.010692 0 -3.38813e-21 2.16e-11 0 0
3570 1 0.000635 0.0023267 0 -0.010692 -3.38813e-21 5.0822e-21 2.16e-11 5.26426e-25 0
3657 1 0.000635 0.00342656 0.000635 -0.010692 2.06574e-17 -3.38813e-21 2.16e-11 0 1.29287e-36
3743 1 0.000635 0.00452641 0 -0.010692 4.13132e-17 5.92923e-21 2.16e-11 0 1.29287e-35
3830 1 0.000635 0.00562626 0.000635 -0.010692 -1.44595e-16 -3.38813e-21 2.16e-11 0 3.23218e-35
3915 1 0.000635 0.00672611 0 -0.010692 8.26315e-17 5.92923e-21 2.16e-11 0 2.06859e-35
4001 1 0.000635 0.00782597 0.000635 -0.010692 0 -3.38813e-21 2.16e-11 0 0
4086 1 0.000635 0.00892582 0 -0.010692 -6.77626e-21 6.77626e-21 2.16e-11 0 0
4172 1 0.000635 0.0100257 0.000635 -0.010692 1.44599e-16 -3.38813e-21 2.16e-11 0 6.33506e-35
4257 1 0.000635 0.0111255 0 -0.010692 7.99187e-08 -3.98105e-19 -3.55568e-06 1.20468e-10 6.33506e-35
4342 1 0.000635 0.0122254 0.000635 -0.010692 5.19702e-06 -1.28125e-06 6.57683e-06 1.43132e-10 1.11613e-13
2369 1 0.000635 -0.0130381 0.00126965 -0.0104233 6.90935e-11 8.99589e-13 2.66198e-10 2.54568e-10 7.05934e-12
2454 1 0.000635 -0.0119714 0.001905 -0.010692 -3.37413e-06 -1.7359e-05 8.49423e-06 2.54023e-10 2.78709e-12
2538 1 0.000635 -0.0108715 0.00127 -0.010692 -1.44366e-07 2.32527e-09 -4.75664e-06 2.17063e-10 6.33506e-35
2624 1 0.000635 -0.00977167 0.001905 -0.010692 -1.44595e-16 1.19221e-17 2.16e-11 0 6.39971e-35
2709 1 0.000635 -0.00867182 0.00127 -0.010692 -8.26264e-17 0 2.16e-11 0 2.06859e-35
2795 1 0.000635 -0.00757197 0.001905 -0.010692 1.44604e-16 1.19221e-17 2.16e-11 0 3.29682e-35
2880 1 0.000635 -0.00647211 0.00127 -0.010692 -1.44605e-16 0 2.16e-11 0 3.23218e-35
2966 1 0.000635 -0.00537226 0.001905 -0.010692 1.44604e-16 1.19238e-17 2.16e-11 0 3.29682e-35
3052 1 0.000635 -0.00427241 0.00127 -0.010692 -1.0328e-16 0 2.16e-11 0 1.68073e-35
3139 1 0.000635 -0.00317256 0.001905 -0.010692 4.13115e-17 1.19229e-17 2.16e-11 0 5.81792e-36
3225 1 0.000635 -0.0020727 0.00127 -0.010692 0 0 2.16e-11 0 0
3312 1 0.000635 -0.000972852 0.001905 -0.010692 0 1.19212e-17 2.16e-11 0 6.46435e-37
3398 1 0.000635 0.000127 0.00127 -0.010692 0 0 2.16e-11 0 0
3485 1 0.000635 0.00122685 0.001905 -0.010692 0 1.19212e-17 2.16e-11 0 6.46435e-37
3571 1 0.000635 0.0023267 0.00127 -0.010692 -6.77626e-21 0 2.16e-11 0 0
3658 1 0.000635 0.00342656 0.001905 -0.010692 2.06591e-17 1.19221e-17 2.16e-11 0 1.93931e-36
3744 1 0.000635 0.00452641 0.00127 -0.010692 4.13115e-17 0 2.16e-11 0 1.29287e-35
3831 1 0.000635 0.00562626 0.001905 -0.010692 -1.44597e-16 1.19221e-17 2.16e-11 0 3.29682e-35
3916 1 0.000635 0.00672611 0.00127 -0.010692 8.26331e-17 0 2.16e-11 0 2.06859e-35
4002 1 0.000635 0.00782597 0.001905 -0.010692 -3.38813e-21 1.19221e-17 2.16e-11 0 6.46435e-37
4087 1 0.000635 0.00892582 0.00127 -0.010692 -6.77626e-21 0 2.16e-11 0 0
4173 1 0.000635 0.0100257 0.001905 -0.010692 1.44599e-16 1.19212e-17 2.16e-11 0 6.39971e-35
4258 1 0.000635 0.0111255 0.00127 -0.010692 7.69266e-08 7.94009e-09 -3.51529e-06 1.17731e-10 6.33506e-35
4343 1 0.000635 0.0122254 0.001905 -0.010692 1.87791e-05 -1.77442e-06 9.2528e-06 1.35218e-10 1.18e-12
4427 1 0.000635 0.0133068 0.0012698 -0.0104904 2.52991e-11 3.40564e-12 -1.63771e-10 1.48255e-10 3.3155e-12
2370 1 0.000635 -0.0130375 0.00253925 -0.0104213 1.27537e-10 -2.81192e-12 4.52816e-10 2.60754e-10 1.22415e-11
2455 1 0.000635 -0.0119714 0.003175 -0.010692 4.31383e-06 -2.8334e-05 6.51793e-06 2.53195e-10 7.33911e-12
2539 1 0.000635 -0.0108715 0.00254 -0.010692 -1.46919e-07 2.96977e-09 -4.81114e-06 2.22186e-10 6.33506e-35
2625 1 0.000635 -0.00977167 0.003175 -0.010692 -1.3427e-16 -4.1748e-17 2.16e-11 5.26426e-25 5.81792e-35
2710 1 0.000635 -0.00867182 0.00254 -0.010692 -7.2301e-17 5.97417e-18 2.16e-11 0 1.61609e-35
2796 1 0.000635 -0.00757197 0.003175 -0.010692 1.44602e-16 -4.77053e-17 2.16e-11 5.26426e-25 3.55539e-35
2881 1 0.000635 -0.00647211 0.00254 -0.010692 -1.44605e-16 1.19365e-17 2.16e-11 0 3.23218e-35
2967 1 0.000635 -0.00537226 0.003175 -0.010692 1.44604e-16 -4.7707e-17 2.16e-11 0 3.55539e-35
3053 1 0.000635 -0.00427241 0.00254 -0.010692 -1.03284e-16 1.19373e-17 2.16e-11 5.26426e-25 1.93931e-35
3140 1 0.000635 -0.00317256 0.003175 -0.010692 3.09963e-17 -4.17472e-17 2.16e-11 1.05285e-24 6.46435e-36
3226 1 0.000635 -0.0020727 0.00254 -0.010692 0 1.43996e-20 2.16e-11 0 0
3313 1 0.000635 -0.000972852 0.003175 -0.010692 0 -3.57823e-17 2.16e-11 1.05285e-24 3.23218e-36
3399 1 0.000635 0.000127 0.00254 -0.010692 0 1.35525e-20 2.16e-11 0 0
3486 1 0.000635 0.00122685 0.003175 -0.010692 0 -3.57823e-17 2.16e-11 1.05285e-24 3.23218e-36
3572 1 0.000635 0.0023267 0.00254 -0.010692 -6.77626e-21 1.35525e-20 2.16e-11 0 0
3659 1 0.000635 0.00342656 0.003175 -0.010692 3.09777e-17 -4.17463e-17 2.16e-11 1.05285e-24 6.46435e-36
3745 1 0.000635 0.00452641 0.00254 -0.010692 4.13115e-17 1.19382e-17 2.16e-11 5.26426e-25 1.93931e-35
3832 1 0.000635 0.00562626 0.003175 -0.010692 -1.44595e-16 -4.77053e-17 2.16e-11 5.26426e-25 3.55539e-35
3917 1 0.000635 0.00672611 0.00254 -0.010692 7.23095e-17 5.97502e-18 2.16e-11 0 1.61609e-35
4003 1 0.000635 0.00782597 0.003175 -0.010692 0 -3.57823e-17 2.16e-11 1.05285e-24 3.23218e-36
4088 1 0.000635 0.00892582 0.00254 -0.010692 -8.47033e-21 1.27055e-20 2.16e-11 0 0
4174 1 0.000635 0.0100257 0.003175 -0.010692 1.3427e-16 -4.1748e-17 2.16e-11 5.26426e-25 5.81792e-35
4259 1 0.000635 0.0111255 0.00254 -0.010692 6.57302e-08 2.987e-08 -3.33634e-06 1.06412e-10 6.33506e-35
4344 1 0.000635 0.0122254 0.003175 -0.010692 5.28451e-05 -7.69467e-06 1.35066e-05 1.42953e-10 9.30874e-12
4428 1 0.000635 0.0133079 0.00253947 -0.0104947 -4.25598e-11 6.34077e-12 1.95637e-10 1.59714e-10 1.76788e-11
2371 1 0.000635 -0.013036 0.00380865 -0.0104152 5.77962e-11 -3.93303e-12 2.17369e-10 2.59579e-10 4.41907e-11
2456 1 0.000635 -0.0119714 0.004445 -0.010692 -0.000144231 0.000100222 4.49038e-05 2.34968e-10 9.89343e-11
2540 1 0.000635 -0.0108715 0.00381 -0.010692 -1.19133e-07 6.10258e-08 -4.59119e-06 2.02243e-10 4.65433e-35
2626 1 0.000635 -0.00977167 0.004445 -0.010692 -3.11713e-09 -5.39902e-09 -3.57336e-07 2.41466e-12 6.01185e-35
2711 1 0.000635 -0.00867182 0.00381 -0.010692 -8.2623e-17 0 2.16e-11 1.05285e-24 2.06859e-35
2797 1 0.000635 -0.00757197 0.004445 -0.010692 1.44602e-16 5.96282e-17 2.16e-11 5.26426e-25 3.74932e-35
2882 1 0.000635 -0.00647211 0.00381 -0.010692 -1.44605e-16 0 2.16e-11 0 3.23218e-35
2968 1 0.000635 -0.00537226 0.004445 -0.010692 1.44604e-16 5.9629e-17 2.16e-11 5.26426e-25 3.74932e-35