ITEM: TIMESTEP
810000
ITEM: NUMBER OF ATOMS
6793
ITEM: BOX BOUNDS ff ff ff
-8.9999999999999997e-02 8.9999999999999997e-02
-8.9999999999999997e-02 8.9999999999999997e-02
-4.0000000000000001e-02 4.0000000000000001e-02
ITEM: ATOMS id type radius x y z fx fy fz c_bendingE c_stretchingE
3385 1 0.000635 0.000122838 -0.0152172 -0.00841804 8.13323e-11 -7.44091e-11 -3.06443e-10 9.99666e-10 5.99081e-11
3471 1 0.000635 0.00121014 -0.0158198 -0.00816017 4.52242e-10 -9.1926e-10 -3.06139e-09 1.06479e-09 1.00096e-10
3558 1 0.000635 0.00230492 -0.0151772 -0.00816587 -9.21125e-11 3.12732e-10 1.62859e-09 7.56774e-11 8.52939e-11
3213 1 0.000635 -0.00207018 -0.0139532 -0.00854947 1.01113e-10 4.99784e-11 1.73631e-10 1.56582e-09 2.58639e-10
3299 1 0.000635 -0.000973897 -0.01459 -0.00853155 9.67786e-12 3.78257e-11 -2.10955e-10 1.52017e-09 1.10927e-10
3386 1 0.000635 0.000126464 -0.0139665 -0.00864373 -1.5222e-11 2.07309e-10 1.45587e-09 1.1677e-09 2.76229e-11
3472 1 0.000635 0.00122147 -0.0145835 -0.00845868 -7.32709e-11 2.90207e-10 1.85246e-09 5.02669e-10 9.13493e-11
3559 1 0.000635 0.00231753 -0.0139427 -0.00847122 -7.73461e-11 3.3324e-10 1.63592e-09 1.65306e-10 2.47722e-10
3645 1 0.000635 0.00340201 -0.0145396 -0.0081863 1.06528e-10 2.14664e-11 8.75256e-11 3.18771e-11 3.94063e-11
3732 1 0.000635 0.00450636 -0.0139201 -0.00827024 1.93274e-11 3.04871e-10 9.60846e-10 4.11876e-11 3.60958e-11
3904 1 0.000635 0.00670132 -0.0139132 -0.00812802 9.07086e-11 2.39998e-10 9.17194e-10 4.76439e-11 1.85447e-11
3041 1 0.000635 -0.00426436 -0.0126825 -0.00854448 2.20995e-10 2.53496e-11 3.89161e-10 9.17635e-10 9.3555e-11
3127 1 0.000635 -0.00316613 -0.0133167 -0.00854487 9.87917e-11 6.02393e-12 2.98373e-10 1.11457e-09 2.55294e-10
3214 1 0.000635 -0.0020727 -0.0127 -0.008748 -8.38984e-05 1.85435e-05 1.60045e-06 1.31893e-09 5.65157e-11
3300 1 0.000635 -0.00097314 -0.0133348 -0.00872131 -4.99802e-12 -6.05464e-11 -1.06889e-09 9.70194e-10 2.42089e-11
3387 1 0.000635 0.000127 -0.0127 -0.008748 -1.50693e-05 -5.9187e-05 3.9412e-06 1.14624e-10 1.15887e-11
3473 1 0.000635 0.00122628 -0.0133336 -0.00869035 -1.22779e-11 9.98555e-11 9.55192e-10 1.19168e-10 5.66128e-11
3560 1 0.000635 0.0023267 -0.0127 -0.008748 5.56418e-05 -0.000262553 7.32079e-05 1.97328e-10 2.31332e-10
3733 1 0.000635 0.00452097 -0.0126882 -0.00857794 1.13165e-10 -1.40588e-10 -8.70721e-10 1.23682e-10 2.06278e-11
3646 1 0.000635 0.00341774 -0.0133138 -0.00852072 1.06221e-10 -1.55603e-10 -6.90785e-10 1.75114e-10 1.44832e-10
3819 1 0.000635 0.00561158 -0.0133017 -0.00835713 1.65204e-10 -1.5811e-10 -8.64894e-10 3.79226e-11 1.41381e-11
3905 1 0.000635 0.00671523 -0.0126775 -0.00842343 4.15815e-11 3.33728e-10 1.4949e-09 5.79991e-11 9.78762e-12
3990 1 0.000635 0.00780642 -0.0132947 -0.00821969 1.88767e-10 4.45644e-11 2.86826e-10 5.30579e-10 7.87853e-11
4076 1 0.000635 0.00890421 -0.0126569 -0.00822955 2.6547e-10 -1.35928e-10 -6.35237e-10 1.01891e-09 1.87299e-11
2870 1 0.000635 -0.0064634 -0.0114158 -0.00855861 2.91804e-11 -1.01945e-10 -5.92178e-10 7.28553e-10 2.71566e-11
2955 1 0.000635 -0.00536356 -0.0120489 -0.00854932 5.1225e-12 -2.5893e-10 -1.14646e-09 7.97603e-10 3.73557e-11
3042 1 0.000635 -0.00427241 -0.01143 -0.008748 -4.92932e-06 5.43979e-05 -8.73329e-06 6.57013e-10 1.55014e-11
3128 1 0.000635 -0.00317256 -0.012065 -0.008748 -3.58635e-05 8.39099e-05 -1.18059e-05 8.44416e-10 5.80939e-11
3215 1 0.000635 -0.0020727 -0.01143 -0.008748 2.68239e-08 -8.50447e-08 -3.54638e-06 1.19802e-10 5.17148e-36
3301 1 0.000635 -0.000972852 -0.012065 -0.008748 4.96651e-08 -4.4919e-06 -3.1759e-06 1.06471e-10 8.65733e-14
3388 1 0.000635 0.000127 -0.01143 -0.008748 4.72789e-09 -1.69407e-21 -9.19033e-07 1.59895e-11 5.17148e-36
3474 1 0.000635 0.00122685 -0.012065 -0.008748 -3.00285e-08 5.41443e-06 -3.01056e-06 1.27505e-10 1.4133e-13
3561 1 0.000635 0.0023267 -0.01143 -0.008748 4.75629e-08 -5.73594e-08 -3.93379e-06 1.56256e-10 5.17148e-36
3647 1 0.000635 0.00342656 -0.012065 -0.008748 3.97785e-05 1.23296e-05 4.92349e-06 1.46014e-10 1.52957e-11
3734 1 0.000635 0.00452641 -0.01143 -0.008748 1.86641e-05 9.17893e-06 3.35397e-06 1.03243e-10 3.92667e-12
3820 1 0.000635 0.00562254 -0.0120575 -0.00861164 1.41413e-10 -1.86449e-10 -1.28921e-09 9.16707e-11 4.97727e-12
3906 1 0.000635 0.00672352 -0.0114253 -0.00863746 8.62845e-11 -1.50508e-11 -3.48507e-10 8.28819e-11 3.17168e-12
3991 1 0.000635 0.0078182 -0.0120512 -0.00848595 1.31236e-10 2.16484e-11 6.63909e-12 7.90707e-10 6.47376e-11
4077 1 0.000635 0.00891703 -0.0114138 -0.00848693 2.06239e-10 -8.64319e-11 -7.63749e-10 7.44e-10 9.95197e-12
2614 1 0.000635 -0.00970869 -0.0106903 -0.00810728 -7.25324e-10 -1.94925e-09 -2.8189e-09 7.16144e-10 1.36616e-10
2699 1 0.000635 -0.00860218 -0.011309 -0.00806554 4.81833e-10 1.92347e-10 4.98172e-10 6.71332e-10 6.2147e-11
2785 1 0.000635 -0.00756358 -0.010783 -0.00857063 2.96633e-11 -1.25591e-10 -4.78601e-10 6.8926e-10 4.00333e-11
2956 1 0.000635 -0.00537226 -0.010795 -0.008748 1.85325e-05 3.36162e-05 -6.87128e-06 5.64909e-10 4.8313e-12
3129 1 0.000635 -0.00317256 -0.010795 -0.008748 -1.44729e-08 -7.32805e-08 -3.54632e-06 1.19803e-10 6.46435e-36
3302 1 0.000635 -0.000972852 -0.010795 -0.008748 2.53633e-09 0 -2.35356e-07 1.04721e-12 5.17148e-36
3475 1 0.000635 0.00122685 -0.010795 -0.008748 5.00514e-09 0 -5.08444e-07 4.88873e-12 5.17148e-36
3648 1 0.000635 0.00342656 -0.010795 -0.008748 5.74267e-08 -3.52195e-08 -3.20777e-06 1.0417e-10 1.0343e-35
3821 1 0.000635 0.00562626 -0.010795 -0.008748 1.13719e-05 3.06625e-07 3.34948e-06 6.90371e-11 1.00149e-12
3992 1 0.000635 0.00782447 -0.0107929 -0.00866652 1.2779e-10 -1.14915e-10 -1.1361e-09 4.06563e-10 3.89989e-11
4163 1 0.000635 0.00997877 -0.0107487 -0.00827949 2.33825e-10 -8.03914e-11 -2.21564e-10 8.46723e-10 2.47659e-11
2445 1 0.000635 -0.0119271 -0.00946874 -0.00822248 -7.73146e-12 -1.2673e-10 4.7072e-10 1.13718e-09 2.16822e-10
2529 1 0.000635 -0.0108172 -0.0100774 -0.00816065 -1.82521e-10 -4.91982e-10 -3.61587e-10 8.25305e-10 2.08233e-10
2615 1 0.000635 -0.00976372 -0.00951638 -0.00859114 2.53027e-10 2.92711e-10 2.25921e-09 7.37067e-10 9.2403e-11
2700 1 0.000635 -0.00866379 -0.01015 -0.00858288 3.87321e-11 7.56543e-11 6.63084e-10 6.79633e-10 6.50509e-11
2786 1 0.000635 -0.00757197 -0.009525 -0.008748 5.49995e-05 7.67612e-06 -5.11274e-06 4.59228e-10 2.12142e-11
2871 1 0.000635 -0.00647211 -0.01016 -0.008748 3.81007e-05 1.90402e-05 -5.81199e-06 5.08359e-10 9.1273e-12
2957 1 0.000635 -0.00537226 -0.009525 -0.008748 -4.927e-08 -4.76654e-08 -3.31812e-06 1.05123e-10 3.74932e-35
3043 1 0.000635 -0.00427241 -0.01016 -0.008748 -3.60394e-08 -6.06265e-08 -3.46728e-06 1.14629e-10 2.71503e-35
3130 1 0.000635 -0.00317256 -0.009525 -0.008748 2.0671e-17 0 2.16e-11 1.05285e-24 6.46435e-36
3216 1 0.000635 -0.0020727 -0.01016 -0.008748 -6.77626e-21 0 2.16e-11 0 5.17148e-36
3303 1 0.000635 -0.000972852 -0.009525 -0.008748 0 0 2.16e-11 0 5.17148e-36
3389 1 0.000635 0.000127 -0.01016 -0.008748 0 0 2.16e-11 0 5.17148e-36
3476 1 0.000635 0.00122685 -0.009525 -0.008748 0 0 2.16e-11 0 5.17148e-36
3562 1 0.000635 0.0023267 -0.01016 -0.008748 0 0 2.16e-11 0 5.17148e-36
3649 1 0.000635 0.00342656 -0.009525 -0.008748 4.13115e-17 0 2.16e-11 0 1.0343e-35
3735 1 0.000635 0.00452641 -0.01016 -0.008748 3.58471e-08 -2.09558e-08 -2.47499e-06 6.0772e-11 3.10289e-35
3822 1 0.000635 0.00562626 -0.009525 -0.008748 2.79199e-08 -8.42844e-09 -1.92122e-06 3.72047e-11 3.74932e-35
3907 1 0.000635 0.00672611 -0.01016 -0.008748 1.20766e-05 -1.54663e-05 3.23383e-06 5.82161e-11 1.21805e-12
3993 1 0.000635 0.00782597 -0.009525 -0.008748 2.32419e-06 -2.77611e-05 1.09694e-06 1.7842e-10 3.19377e-12
4078 1 0.000635 0.00892471 -0.0101569 -0.00866763 2.62223e-12 7.05985e-11 6.02694e-10 7.65407e-10 3.5214e-11
4164 1 0.000635 0.0100164 -0.00951322 -0.00856885 -2.40841e-10 2.6572e-10 1.76011e-09 7.14258e-10 5.62066e-11
2277 1 0.000635 -0.0141475 -0.00824745 -0.0083297 1.42324e-10 2.35632e-10 1.05444e-09 1.71536e-09 6.20689e-11
2361 1 0.000635 -0.013037 -0.00885828 -0.00827645 3.21512e-11 3.72275e-11 8.42643e-10 2.21874e-09 1.08588e-10
2446 1 0.000635 -0.0119652 -0.00825161 -0.00858501 2.17558e-10 2.77301e-10 2.13566e-09 1.16931e-09 9.87972e-12
2530 1 0.000635 -0.010864 -0.00888387 -0.00859443 5.37734e-12 -1.01475e-10 2.50705e-10 9.95675e-10 3.27214e-11
2616 1 0.000635 -0.00977167 -0.008255 -0.008748 4.88019e-06 -5.06604e-05 7.02025e-06 3.18532e-10 1.85996e-11
2701 1 0.000635 -0.00867182 -0.00889 -0.008748 6.87615e-05 -2.87382e-06 -4.60925e-06 3.97889e-10 3.71414e-11
2787 1 0.000635 -0.00757197 -0.008255 -0.008748 -5.85458e-08 -2.66556e-08 -2.94876e-06 8.2952e-11 4.0079e-35
2872 1 0.000635 -0.00647211 -0.00889 -0.008748 -5.61658e-08 -3.57451e-08 -3.12787e-06 9.34848e-11 3.74932e-35
2958 1 0.000635 -0.00537226 -0.008255 -0.008748 1.44607e-16 -7.15799e-17 2.16e-11 5.26426e-25 4.0079e-35
3044 1 0.000635 -0.00427241 -0.00889 -0.008748 -1.03289e-16 -4.76841e-17 2.16e-11 1.05285e-24 2.71503e-35
3131 1 0.000635 -0.00317256 -0.008255 -0.008748 3.09912e-17 -7.75431e-17 2.16e-11 5.26426e-25 1.87466e-35
3217 1 0.000635 -0.0020727 -0.00889 -0.008748 -3.38813e-21 -4.76866e-17 2.16e-11 0 5.17148e-36
3304 1 0.000635 -0.000972852 -0.008255 -0.008748 0 -7.15833e-17 2.16e-11 0 1.0343e-35
3390 1 0.000635 0.000127 -0.00889 -0.008748 0 -4.76866e-17 2.16e-11 0 5.17148e-36
3477 1 0.000635 0.00122685 -0.008255 -0.008748 0 -7.15833e-17 2.16e-11 0 1.0343e-35
3563 1 0.000635 0.0023267 -0.00889 -0.008748 0 -4.76858e-17 2.16e-11 0 5.17148e-36
3650 1 0.000635 0.00342656 -0.008255 -0.008748 4.13098e-17 -7.15825e-17 2.16e-11 0 1.0343e-35
3736 1 0.000635 0.00452641 -0.00889 -0.008748 4.13115e-17 -4.76841e-17 2.16e-11 0 3.10289e-35
3823 1 0.000635 0.00562626 -0.008255 -0.008748 -1.446e-16 -7.15791e-17 2.16e-11 0 4.0079e-35
3908 1 0.000635 0.00672611 -0.00889 -0.008748 1.3566e-08 -1.61575e-08 -1.68353e-06 2.75102e-11 1.68073e-35
3994 1 0.000635 0.00782597 -0.008255 -0.008748 -1.14766e-08 -4.26866e-08 -2.29976e-06 5.7311e-11 1.0343e-35
4079 1 0.000635 0.00892582 -0.00889 -0.008748 -5.43549e-05 6.03847e-05 -1.22411e-05 4.28884e-10 2.23775e-11
4165 1 0.000635 0.0100257 -0.008255 -0.008748 0.000156087 2.2319e-05 3.41221e-05 5.91931e-10 1.36226e-10
4250 1 0.000635 0.0110713 -0.00884631 -0.00833483 -2.02702e-10 1.77993e-10 1.00754e-09 7.45852e-10 2.53974e-11
2278 1 0.000635 -0.0141399 -0.00697885 -0.00831264 -4.14032e-10 2.46294e-10 -1.36419e-09 1.47331e-09 1.15892e-10
2362 1 0.000635 -0.0130647 -0.00761669 -0.00853996 1.1669e-10 1.49795e-10 1.25521e-09 1.12173e-09 3.68495e-11
2447 1 0.000635 -0.01197 -0.00698472 -0.00867285 1.46477e-10 2.10795e-10 2.36586e-09 1.90844e-10 2.34946e-11
2531 1 0.000635 -0.0108713 -0.00761999 -0.00872016 -4.57544e-11 -6.54883e-11 -9.84886e-10 2.39799e-10 3.36081e-12
2617 1 0.000635 -0.00977167 -0.006985 -0.008748 -7.07195e-06 -4.04522e-06 -1.99326e-06 5.6545e-11 2.96249e-13
2702 1 0.000635 -0.00867182 -0.00762 -0.008748 -6.39097e-08 -1.18004e-08 -2.81006e-06 7.51059e-11 2.9736e-35
2788 1 0.000635 -0.00757197 -0.006985 -0.008748 1.44605e-16 -2.38958e-17 2.16e-11 0 4.0079e-35
2873 1 0.000635 -0.00647211 -0.00762 -0.008748 -1.44609e-16 2.38967e-17 2.16e-11 0 4.0079e-35
2959 1 0.000635 -0.00537226 -0.006985 -0.008748 1.44605e-16 -2.38958e-17 2.16e-11 0 4.0079e-35
3045 1 0.000635 -0.00427241 -0.00762 -0.008748 -1.13623e-16 2.98573e-17 2.16e-11 0 2.90896e-35
3132 1 0.000635 -0.00317256 -0.006985 -0.008748 3.09912e-17 -2.98573e-17 2.16e-11 0 1.87466e-35
3218 1 0.000635 -0.0020727 -0.00762 -0.008748 -1.69407e-21 2.38958e-17 2.16e-11 0 1.0343e-35
3305 1 0.000635 -0.000972852 -0.006985 -0.008748 0 -2.38967e-17 2.16e-11 0 1.0343e-35
3391 1 0.000635 0.000127 -0.00762 -0.008748 0 2.38967e-17 2.16e-11 0 1.0343e-35
3478 1 0.000635 0.00122685 -0.006985 -0.008748 0 -2.38967e-17 2.16e-11 0 1.0343e-35
3564 1 0.000635 0.0023267 -0.00762 -0.008748 0 2.38967e-17 2.16e-11 0 1.0343e-35
3651 1 0.000635 0.00342656 -0.006985 -0.008748 4.13081e-17 -2.38967e-17 2.16e-11 0 1.0343e-35
3737 1 0.000635 0.00452641 -0.00762 -0.008748 4.13217e-17 2.38958e-17 2.16e-11 0 2.06859e-35
3824 1 0.000635 0.00562626 -0.006985 -0.008748 -1.44599e-16 -2.3895e-17 2.16e-11 0 4.0079e-35
3909 1 0.000635 0.00672611 -0.00762 -0.008748 6.19757e-17 2.38958e-17 2.16e-11 0 2.9736e-35
3995 1 0.000635 0.00782597 -0.006985 -0.008748 -6.77626e-21 -2.38967e-17 2.16e-11 0 1.0343e-35
4080 1 0.000635 0.00892582 -0.00762 -0.008748 -3.75721e-08 -8.1992e-08 -4.35208e-06 2.67502e-10 1.0343e-35
4166 1 0.000635 0.0100257 -0.006985 -0.008748 -5.66635e-05 3.25399e-05 -1.01194e-05 4.61412e-10 1.97702e-11
4251 1 0.000635 0.0111214 -0.00761581 -0.00864139 -1.42138e-10 1.40386e-10 1.3991e-09 7.09677e-10 1.97862e-10
4336 1 0.000635 0.0121957 -0.00696257 -0.0084506 -2.544e-10 2.26871e-10 1.43318e-09 8.18547e-10 1.17161e-10
2279 1 0.000635 -0.0141211 -0.00571092 -0.00825671 3.2124e-10 1.0758e-10 5.97275e-10 6.14374e-11 6.07986e-11
2363 1 0.000635 -0.0130609 -0.00634738 -0.00854402 -6.58494e-10 1.15851e-10 -3.34297e-09 2.00124e-10 5.21799e-11
2448 1 0.000635 -0.0119708 -0.00571528 -0.00871035 -2.12761e-10 4.28991e-11 -1.39767e-09 1.01652e-10 3.71168e-11
2532 1 0.000635 -0.0108715 -0.00635 -0.008748 -3.83172e-05 -4.39427e-05 2.97637e-06 6.09526e-11 1.25143e-11
2618 1 0.000635 -0.00977167 -0.005715 -0.008748 -1.91776e-09 3.32165e-09 -6.62249e-07 8.29608e-12 6.85221e-35
2703 1 0.000635 -0.00867182 -0.00635 -0.008748 -3.73364e-10 6.46685e-10 -2.45497e-07 1.13929e-12 2.9736e-35
2789 1 0.000635 -0.00757197 -0.005715 -0.008748 1.44602e-16 4.76832e-17 2.16e-11 0 3.74932e-35
2874 1 0.000635 -0.00647211 -0.00635 -0.008748 -1.44609e-16 7.15816e-17 2.16e-11 0 4.0079e-35
2960 1 0.000635 -0.00537226 -0.005715 -0.008748 1.44604e-16 4.76841e-17 2.16e-11 5.26426e-25 3.74932e-35
3046 1 0.000635 -0.00427241 -0.00635 -0.008748 -1.13621e-16 7.75431e-17 2.16e-11 0 2.90896e-35
3133 1 0.000635 -0.00317256 -0.005715 -0.008748 2.0671e-17 4.76858e-17 2.16e-11 5.26426e-25 6.46435e-36
3219 1 0.000635 -0.0020727 -0.00635 -0.008748 -5.0822e-21 7.15842e-17 2.16e-11 0 1.0343e-35
3306 1 0.000635 -0.000972852 -0.005715 -0.008748 0 4.76866e-17 2.16e-11 0 5.17148e-36
3392 1 0.000635 0.000127 -0.00635 -0.008748 0 7.1585e-17 2.16e-11 0 1.0343e-35
3479 1 0.000635 0.00122685 -0.005715 -0.008748 0 4.76866e-17 2.16e-11 0 5.17148e-36
3565 1 0.000635 0.0023267 -0.00635 -0.008748 0 7.15842e-17 2.16e-11 0 1.0343e-35
3652 1 0.000635 0.00342656 -0.005715 -0.008748 4.13098e-17 4.76858e-17 2.16e-11 0 1.0343e-35
3738 1 0.000635 0.00452641 -0.00635 -0.008748 4.13183e-17 7.15816e-17 2.16e-11 0 2.06859e-35
3825 1 0.000635 0.00562626 -0.005715 -0.008748 -1.44597e-16 4.76841e-17 2.16e-11 0 3.74932e-35
3910 1 0.000635 0.00672611 -0.00635 -0.008748 6.19774e-17 7.15825e-17 2.16e-11 0 2.9736e-35
3996 1 0.000635 0.00782597 -0.005715 -0.008748 -6.77626e-21 4.76849e-17 2.16e-11 0 5.17148e-36
4081 1 0.000635 0.00892582 -0.00635 -0.008748 -6.83995e-09 -1.18471e-08 -9.41088e-07 1.67706e-11 1.0343e-35
4167 1 0.000635 0.0100257 -0.005715 -0.008748 -2.0358e-08 -3.52612e-08 -2.626e-06 1.32192e-10 6.85221e-35
4252 1 0.000635 0.0111255 -0.00635 -0.008748 -0.000141107 -1.82568e-05 -2.03015e-05 6.43079e-10 6.3833e-11
4337 1 0.000635 0.0122231 -0.00571581 -0.00869997 -5.60473e-11 5.07116e-11 8.44359e-10 8.82258e-10 1.58519e-10
4421 1 0.000635 0.0132237 -0.00627684 -0.00815686 -2.08161e-10 2.45362e-10 1.31468e-09 1.4228e-09 2.45637e-11
2364 1 0.000635 -0.0130532 -0.00507777 -0.00853021 -8.75515e-10 9.79472e-11 -4.23243e-09 1.41622e-10 1.11742e-10
2533 1 0.000635 -0.0108715 -0.00508 -0.008748 -8.75391e-06 -5.12143e-06 -2.5427e-06 1.13899e-10 4.55923e-13
2704 1 0.000635 -0.00867182 -0.00508 -0.008748 -6.19774e-17 -2.3845e-17 2.16e-11 0 1.42216e-35
2875 1 0.000635 -0.00647211 -0.00508 -0.008748 -1.44605e-16 -2.38442e-17 2.16e-11 0 3.49075e-35
3047 1 0.000635 -0.00427241 -0.00508 -0.008748 -1.03287e-16 -2.38433e-17 2.16e-11 1.57928e-24 2.45645e-35
3220 1 0.000635 -0.0020727 -0.00508 -0.008748 -3.38813e-21 -2.38442e-17 2.16e-11 0 2.58574e-36
3393 1 0.000635 0.000127 -0.00508 -0.008748 0 -2.38442e-17 2.16e-11 0 2.58574e-36
3566 1 0.000635 0.0023267 -0.00508 -0.008748 -3.38813e-21 -2.38459e-17 2.16e-11 0 2.58574e-36
3739 1 0.000635 0.00452641 -0.00508 -0.008748 4.13081e-17 -2.38433e-17 2.16e-11 5.26426e-25 2.84431e-35
3911 1 0.000635 0.00672611 -0.00508 -0.008748 6.19859e-17 -2.38442e-17 2.16e-11 0 1.42216e-35
4082 1 0.000635 0.00892582 -0.00508 -0.008748 -8.47033e-21 -2.3845e-17 2.16e-11 0 2.58574e-36
4253 1 0.000635 0.0111255 -0.00508 -0.008748 -3.26817e-05 1.8725e-05 -7.19879e-06 4.33319e-10 6.53499e-12
4422 1 0.000635 0.0133118 -0.00507814 -0.00856909 -1.66305e-10 1.14337e-10 1.25122e-09 1.12421e-09 5.19476e-11
2280 1 0.000635 -0.014105 -0.00444279 -0.00820938 1.41956e-09 -9.16132e-11 4.19218e-09 4.13059e-11 2.83559e-11
2365 1 0.000635 -0.0130449 -0.00380908 -0.00850717 -1.23792e-10 5.61945e-11 -6.08546e-10 1.91048e-10 3.04651e-11
2449 1 0.000635 -0.0119714 -0.004445 -0.008748 -0.000132028 -8.15641e-05 3.63727e-05 1.727e-10 7.68444e-11
2534 1 0.000635 -0.0108715 -0.00381 -0.008748 -8.89249e-08 -4.59852e-08 -3.99612e-06 1.52697e-10 4.65433e-35
2619 1 0.000635 -0.00977167 -0.004445 -0.008748 -2.37815e-09 4.11908e-09 -3.32021e-07 2.08439e-12 6.01185e-35
2705 1 0.000635 -0.00867182 -0.00381 -0.008748 -8.2623e-17 0 2.16e-11 1.05285e-24 2.06859e-35
2790 1 0.000635 -0.00757197 -0.004445 -0.008748 1.44602e-16 -5.96282e-17 2.16e-11 5.26426e-25 3.74932e-35
2876 1 0.000635 -0.00647211 -0.00381 -0.008748 -1.44605e-16 0 2.16e-11 0 3.23218e-35
2961 1 0.000635 -0.00537226 -0.004445 -0.008748 1.44604e-16 -5.9629e-17 2.16e-11 5.26426e-25 3.74932e-35
3048 1 0.000635 -0.00427241 -0.00381 -0.008748 -1.03291e-16 0 2.16e-11 0 1.68073e-35
3134 1 0.000635 -0.00317256 -0.004445 -0.008748 3.09963e-17 -5.36693e-17 2.16e-11 1.57928e-24 8.40366e-36
3221 1 0.000635 -0.0020727 -0.00381 -0.008748 -6.77626e-21 0 2.16e-11 2.10571e-24 0
3307 1 0.000635 -0.000972852 -0.004445 -0.008748 0 -4.77053e-17 2.16e-11 1.05285e-24 5.17148e-36
3394 1 0.000635 0.000127 -0.00381 -0.008748 0 0 2.16e-11 1.05285e-24 0
3480 1 0.000635 0.00122685 -0.004445 -0.008748 0 -4.77053e-17 2.16e-11 1.05285e-24 5.17148e-36
3567 1 0.000635 0.0023267 -0.00381 -0.008748 0 0 2.16e-11 2.10571e-24 0
3653 1 0.000635 0.00342656 -0.004445 -0.008748 3.09811e-17 -5.36701e-17 2.16e-11 1.05285e-24 8.40366e-36
3740 1 0.000635 0.00452641 -0.00381 -0.008748 4.13217e-17 7.70372e-34 2.16e-11 0 1.29287e-35
3826 1 0.000635 0.00562626 -0.004445 -0.008748 -1.44597e-16 -5.9629e-17 2.16e-11 5.26426e-25 3.74932e-35
3912 1 0.000635 0.00672611 -0.00381 -0.008748 8.26298e-17 0 2.16e-11 1.05285e-24 2.06859e-35
3997 1 0.000635 0.00782597 -0.004445 -0.008748 -3.38813e-21 -4.77061e-17 2.16e-11 1.05285e-24 5.17148e-36
4083 1 0.000635 0.00892582 -0.00381 -0.008748 -6.77626e-21 0 2.16e-11 1.05285e-24 0
4168 1 0.000635 0.0100257 -0.004445 -0.008748 8.22684e-09 1.42493e-08 -4.23815e-07 3.40106e-12 6.01185e-35
4254 1 0.000635 0.0111255 -0.00381 -0.008748 5.0241e-08 -9.01681e-09 -3.02039e-06 8.68705e-11 4.65433e-35
4338 1 0.000635 0.0122254 -0.004445 -0.008748 7.6891e-05 -5.64223e-05 1.17276e-05 9.48377e-10 7.28448e-11
4423 1 0.000635 0.0133169 -0.00380886 -0.00860425 -2.07023e-10 8.44878e-11 1.33926e-09 6.40403e-10 8.00016e-11
4507 1 0.000635 0.0143874 -0.00444194 -0.00834626 -3.10748e-10 1.06334e-10 1.48899e-09 1.06388e-09 1.81267e-11
4591 1 0.000635 0.0154542 -0.00380744 -0.00807861 -7.0063e-10 1.2311e-10 2.28168e-09 6.34648e-10 2.19715e-11
2281 1 0.000635 -0.0140976 -0.00317377 -0.00818875 -8.14656e-10 4.45686e-11 -2.60375e-09 2.61484e-11 1.51029e-11
2366 1 0.000635 -0.0130458 -0.00253953 -0.00851226 -1.53042e-10 3.32435e-11 -5.59512e-10 1.92697e-10 6.47771e-12
2450 1 0.000635 -0.0119714 -0.003175 -0.008748 -1.04013e-05 1.48092e-05 9.10506e-06 1.87883e-10 2.37758e-12
2535 1 0.000635 -0.0108715 -0.00254 -0.008748 -1.09808e-07 -1.22528e-09 -4.17627e-06 1.66774e-10 6.33506e-35
2620 1 0.000635 -0.00977167 -0.003175 -0.008748 -1.3427e-16 4.1748e-17 2.16e-11 5.26426e-25 5.81792e-35
2706 1 0.000635 -0.00867182 -0.00254 -0.008748 -7.2301e-17 -5.97417e-18 2.16e-11 0 1.61609e-35
2791 1 0.000635 -0.00757197 -0.003175 -0.008748 1.44602e-16 4.77053e-17 2.16e-11 5.26426e-25 3.55539e-35
2877 1 0.000635 -0.00647211 -0.00254 -0.008748 -1.44605e-16 -1.19365e-17 2.16e-11 0 3.23218e-35
2962 1 0.000635 -0.00537226 -0.003175 -0.008748 1.44604e-16 4.7707e-17 2.16e-11 0 3.55539e-35
3049 1 0.000635 -0.00427241 -0.00254 -0.008748 -1.03284e-16 -1.19373e-17 2.16e-11 5.26426e-25 1.93931e-35
3135 1 0.000635 -0.00317256 -0.003175 -0.008748 3.09963e-17 4.17472e-17 2.16e-11 1.05285e-24 6.46435e-36
3222 1 0.000635 -0.0020727 -0.00254 -0.008748 0 -1.43996e-20 2.16e-11 0 0
3308 1 0.000635 -0.000972852 -0.003175 -0.008748 0 3.57823e-17 2.16e-11 1.05285e-24 3.23218e-36
3395 1 0.000635 0.000127 -0.00254 -0.008748 0 -1.35525e-20 2.16e-11 0 0
3481 1 0.000635 0.00122685 -0.003175 -0.008748 0 3.57823e-17 2.16e-11 1.05285e-24 3.23218e-36
3568 1 0.000635 0.0023267 -0.00254 -0.008748 -6.77626e-21 -1.35525e-20 2.16e-11 0 0
3654 1 0.000635 0.00342656 -0.003175 -0.008748 3.09777e-17 4.17463e-17 2.16e-11 1.05285e-24 6.46435e-36
3741 1 0.000635 0.00452641 -0.00254 -0.008748 4.13115e-17 -1.19382e-17 2.16e-11 5.26426e-25 1.93931e-35
3827 1 0.000635 0.00562626 -0.003175 -0.008748 -1.44595e-16 4.77053e-17 2.16e-11 5.26426e-25 3.55539e-35
3913 1 0.000635 0.00672611 -0.00254 -0.008748 7.23095e-17 -5.97502e-18 2.16e-11 0 1.61609e-35
3998 1 0.000635 0.00782597 -0.003175 -0.008748 0 3.57823e-17 2.16e-11 1.05285e-24 3.23218e-36
4084 1 0.000635 0.00892582 -0.00254 -0.008748 -8.47033e-21 -1.27055e-20 2.16e-11 0 0
4169 1 0.000635 0.0100257 -0.003175 -0.008748 1.3427e-16 4.1748e-17 2.16e-11 5.26426e-25 5.81792e-35
4255 1 0.000635 0.0111255 -0.00254 -0.008748 4.39208e-08 -2.75905e-08 -2.77887e-06 7.39085e-11 6.33506e-35
4339 1 0.000635 0.0122254 -0.003175 -0.008748 5.37328e-05 1.05152e-05 1.10769e-05 1.01347e-10 9.95711e-12
4424 1 0.000635 0.0133136 -0.00253947 -0.00858433 -5.5999e-10 1.98875e-11 3.44327e-09 1.13974e-10 1.99891e-11
4508 1 0.000635 0.0143959 -0.00317327 -0.00838258 1.83639e-10 9.03507e-11 -5.12837e-10 7.75332e-10 9.29452e-11
4592 1 0.000635 0.0154603 -0.00253855 -0.00809797 -3.35861e-11 -1.76979e-11 8.53691e-10 3.34318e-10 7.11874e-11
2282 1 0.000635 -0.0140974 -0.00190435 -0.00818957 -5.40779e-10 3.57953e-11 -1.71217e-09 2.95987e-11 9.10877e-12
2367 1 0.000635 -0.0130465 -0.00126979 -0.00851528 -4.32682e-10 1.4587e-11 -1.63409e-09 1.90794e-10 3.32917e-12
2451 1 0.000635 -0.0119714 -0.001905 -0.008748 -7.97795e-06 9.53798e-06 8.4312e-06 1.88225e-10 1.05519e-12
2536 1 0.000635 -0.0108715 -0.00127 -0.008748 -1.08299e-07 7.32531e-11 -4.12503e-06 1.6263e-10 6.33506e-35
2621 1 0.000635 -0.00977167 -0.001905 -0.008748 -1.44592e-16 -1.19229e-17 2.16e-11 5.26426e-25 6.39971e-35
2707 1 0.000635 -0.00867182 -0.00127 -0.008748 -7.2301e-17 5.96909e-18 2.16e-11 5.26426e-25 1.61609e-35
2792 1 0.000635 -0.00757197 -0.001905 -0.008748 1.44605e-16 -1.19229e-17 2.16e-11 0 3.29682e-35
2878 1 0.000635 -0.00647211 -0.00127 -0.008748 -1.44605e-16 1.19331e-17 2.16e-11 0 3.23218e-35
2963 1 0.000635 -0.00537226 -0.001905 -0.008748 1.44602e-16 -1.19246e-17 2.16e-11 0 3.29682e-35
3050 1 0.000635 -0.00427241 -0.00127 -0.008748 -1.13613e-16 5.96993e-18 2.16e-11 0 2.13324e-35
3136 1 0.000635 -0.00317256 -0.001905 -0.008748 4.13081e-17 -1.19229e-17 2.16e-11 0 5.81792e-36
3223 1 0.000635 -0.0020727 -0.00127 -0.008748 0 7.6233e-21 2.16e-11 0 0
3309 1 0.000635 -0.000972852 -0.001905 -0.008748 0 -1.19229e-17 2.16e-11 0 6.46435e-37
3396 1 0.000635 0.000127 -0.00127 -0.008748 0 6.77626e-21 2.16e-11 0 0
3482 1 0.000635 0.00122685 -0.001905 -0.008748 0 -1.19229e-17 2.16e-11 0 6.46435e-37
3569 1 0.000635 0.0023267 -0.00127 -0.008748 -6.77626e-21 6.77626e-21 2.16e-11 0 0
3655 1 0.000635 0.00342656 -0.001905 -0.008748 2.06608e-17 -1.19229e-17 2.16e-11 0 1.93931e-36
3742 1 0.000635 0.00452641 -0.00127 -0.008748 4.13149e-17 1.19331e-17 2.16e-11 5.26426e-25 1.93931e-35
3828 1 0.000635 0.00562626 -0.001905 -0.008748 -1.44599e-16 -1.19229e-17 2.16e-11 0 3.29682e-35
3914 1 0.000635 0.00672611 -0.00127 -0.008748 7.23078e-17 5.96909e-18 2.16e-11 5.26426e-25 1.61609e-35
3999 1 0.000635 0.00782597 -0.001905 -0.008748 -6.77626e-21 -1.19229e-17 2.16e-11 5.26426e-25 6.46435e-37
4085 1 0.000635 0.00892582 -0.00127 -0.008748 -6.77626e-21 6.77626e-21 2.16e-11 0 0
4170 1 0.000635 0.0100257 -0.001905 -0.008748 1.44599e-16 -1.19229e-17 2.16e-11 0 6.39971e-35
4256 1 0.000635 0.0111255 -0.00127 -0.008748 5.33911e-08 -1.03779e-08 -2.96337e-06 8.35105e-11 6.33506e-35
4340 1 0.000635 0.0122254 -0.001905 -0.008748 2.37913e-05 1.26839e-06 8.60017e-06 9.37784e-11 1.81294e-12
4425 1 0.000635 0.013312 -0.0012698 -0.00857658 -4.33929e-10 1.13367e-11 2.776e-09 1.03339e-10 3.8764e-12
4509 1 0.000635 0.0143883 -0.00190431 -0.00834759 -3.47873e-10 -3.85441e-12 2.29306e-09 3.89281e-11 1.621e-11
4593 1 0.000635 0.0154515 -0.00126953 -0.00806338 -1.31637e-10 -2.89694e-11 1.38791e-09 2.00919e-11 1.11776e-11
2283 1 0.000635 -0.0140979 -0.000634798 -0.00819149 -5.18839e-10 7.08804e-12 -1.61052e-09 3.0519e-11 7.0069e-12
2452 1 0.000635 -0.0119714 -0.000635 -0.008748 -9.87736e-06 2.8787e-06 8.71849e-06 1.87491e-10 4.16282e-13
2622 1 0.000635 -0.00977167 -0.000635 -0.008748 -1.44599e-16 -8.47033e-21 2.16e-11 0 6.33506e-35
2793 1 0.000635 -0.00757197 -0.000635 -0.008748 1.44604e-16 -1.19339e-17 2.16e-11 5.26426e-25 3.23218e-35
2964 1 0.000635 -0.00537226 -0.000635 -0.008748 1.44604e-16 -1.19365e-17 2.16e-11 0 3.23218e-35
3137 1 0.000635 -0.00317256 -0.000635 -0.008748 4.13183e-17 -8.47033e-21 2.16e-11 0 5.17148e-36
3310 1 0.000635 -0.000972852 -0.000635 -0.008748 0 -8.47033e-21 2.16e-11 0 0
3483 1 0.000635 0.00122685 -0.000635 -0.008748 0 -8.47033e-21 2.16e-11 0 0
3656 1 0.000635 0.00342656 -0.000635 -0.008748 3.09811e-17 -5.97078e-18 2.16e-11 5.26426e-25 3.23218e-36
3829 1 0.000635 0.00562626 -0.000635 -0.008748 -1.44597e-16 -1.19339e-17 2.16e-11 5.26426e-25 3.23218e-35
4000 1 0.000635 0.00782597 -0.000635 -0.008748 0 -8.47033e-21 2.16e-11 0 0
4171 1 0.000635 0.0100257 -0.000635 -0.008748 1.44599e-16 -8.47033e-21 2.16e-11 0 6.33506e-35
4341 1 0.000635 0.0122254 -0.000635 -0.008748 8.52526e-06 7.41329e-07 6.2732e-06 1.00569e-10 2.45964e-13
4426 1 0.000635 0.0133118 1.0059e-15 -0.00857562 -7.21047e-10 4.89834e-14 4.30451e-09 1.05726e-10 1.7205e-12
4510 1 0.000635 0.0143841 -0.000634823 -0.0083301 3.25762e-11 -4.46818e-12 8.20196e-10 2.18342e-11 4.93419e-12
4594 1 0.000635 0.0154477 9.34282e-15 -0.00804886 2.03619e-10 4.58064e-14 8.83655e-11 8.89282e-12 5.00286e-12
2284 1 0.000635 -0.0140979 0.000634798 -0.00819149 -5.18819e-10 -7.11793e-12 -1.61053e-09 3.0519e-11 7.0069e-12
2368 1 0.000635 -0.0130467 -1.09066e-15 -0.008516 -1.24617e-10 1.13599e-14 -4.41491e-10 1.90533e-10 2.6569e-12
2453 1 0.000635 -0.0119714 0.000635 -0.008748 -9.87736e-06 -2.8787e-06 8.71849e-06 1.87491e-10 4.16282e-13
2537 1 0.000635 -0.0108715 0 -0.008748 -1.07393e-07 1.47604e-17 -4.10466e-06 1.61e-10 6.33506e-35
2623 1 0.000635 -0.00977167 0.000635 -0.008748 -1.44599e-16 -3.38813e-21 2.16e-11 0 6.33506e-35
2708 1 0.000635 -0.00867182 0 -0.008748 -8.26247e-17 5.92923e-21 2.16e-11 0 2.06859e-35
2794 1 0.000635 -0.00757197 0.000635 -0.008748 1.44602e-16 -3.38813e-21 2.16e-11 0 3.23218e-35
2879 1 0.000635 -0.00647211 0 -0.008748 -1.44605e-16 5.0822e-21 2.16e-11 0 3.23218e-35
2965 1 0.000635 -0.00537226 0.000635 -0.008748 1.44602e-16 -3.38813e-21 2.16e-11 0 3.23218e-35
3051 1 0.000635 -0.00427241 0 -0.008748 -1.03282e-16 5.92923e-21 2.16e-11 0 1.68073e-35
3138 1 0.000635 -0.00317256 0.000635 -0.008748 4.13149e-17 -3.38813e-21 2.16e-11 0 5.17148e-36
3224 1 0.000635 -0.0020727 0 -0.008748 0 6.77626e-21 2.16e-11 0 0
3311 1 0.000635 -0.000972852 0.000635 -0.008748 0 -3.38813e-21 2.16e-11 0 0
3397 1 0.000635 0.000127 0 -0.008748 0 6.77626e-21 2.16e-11 0 0
3484 1 0.000635 0.00122685 0.000635 -0.008748 0 -3.38813e-21 2.16e-11 0 0
3570 1 0.000635 0.0023267 0 -0.008748 -3.38813e-21 5.0822e-21 2.16e-11 5.26426e-25 0
3657 1 0.000635 0.00342656 0.000635 -0.008748 2.06574e-17 -3.38813e-21 2.16e-11 0 1.29287e-36
3743 1 0.000635 0.00452641 0 -0.008748 4.13132e-17 5.92923e-21 2.16e-11 0 1.29287e-35
3830 1 0.000635 0.00562626 0.000635 -0.008748 -1.44595e-16 -3.38813e-21 2.16e-11 0 3.23218e-35
3915 1 0.000635 0.00672611 0 -0.008748 8.26315e-17 5.92923e-21 2.16e-11 0 2.06859e-35
4001 1 0.000635 0.00782597 0.000635 -0.008748 0 -3.38813e-21 2.16e-11 0 0
4086 1 0.000635 0.00892582 0 -0.008748 -6.77626e-21 6.77626e-21 2.16e-11 0 0
4172 1 0.000635 0.0100257 0.000635 -0.008748 1.44599e-16 -3.38813e-21 2.16e-11 0 6.33506e-35
4257 1 0.000635 0.0111255 0 -0.008748 5.68258e-08 5.03451e-17 -3.02348e-06 8.68974e-11 6.33506e-35
4342 1 0.000635 0.0122254 0.000635 -0.008748 8.52526e-06 -7.41329e-07 6.2732e-06 1.00569e-10 2.45964e-13
4511 1 0.000635 0.0143841 0.000634823 -0.0083301 3.26008e-11 4.44889e-12 8.20215e-10 2.18342e-11 4.93419e-12
2285 1 0.000635 -0.0140974 0.00190435 -0.00818957 -5.40963e-10 -3.5841e-11 -1.71212e-09 2.95987e-11 9.10877e-12
2369 1 0.000635 -0.0130465 0.00126979 -0.00851528 -4.32567e-10 -1.45642e-11 -1.63412e-09 1.90794e-10 3.32917e-12
2454 1 0.000635 -0.0119714 0.001905 -0.008748 -7.97795e-06 -9.53798e-06 8.4312e-06 1.88225e-10 1.05519e-12
2538 1 0.000635 -0.0108715 0.00127 -0.008748 -1.08299e-07 -7.32531e-11 -4.12503e-06 1.6263e-10 6.33506e-35
2624 1 0.000635 -0.00977167 0.001905 -0.008748 -1.44595e-16 1.19221e-17 2.16e-11 0 6.39971e-35
2709 1 0.000635 -0.00867182 0.00127 -0.008748 -8.26264e-17 0 2.16e-11 0 2.06859e-35
2795 1 0.000635 -0.00757197 0.001905 -0.008748 1.44604e-16 1.19221e-17 2.16e-11 0 3.29682e-35
2880 1 0.000635 -0.00647211 0.00127 -0.008748 -1.44605e-16 0 2.16e-11 0 3.23218e-35
2966 1 0.000635 -0.00537226 0.001905 -0.008748 1.44604e-16 1.19238e-17 2.16e-11 0 3.29682e-35
3052 1 0.000635 -0.00427241 0.00127 -0.008748 -1.0328e-16 0 2.16e-11 0 1.68073e-35
3139 1 0.000635 -0.00317256 0.001905 -0.008748 4.13115e-17 1.19229e-17 2.16e-11 0 5.81792e-36