ITEM: TIMESTEP
410000
ITEM: NUMBER OF ATOMS
6793
ITEM: BOX BOUNDS ff ff ff
-8.9999999999999997e-02 8.9999999999999997e-02
-8.9999999999999997e-02 8.9999999999999997e-02
-4.0000000000000001e-02 4.0000000000000001e-02
ITEM: ATOMS id type radius x y z fx fy fz c_bendingE c_stretchingE
3469 1 0.000635 0.00120954 -0.0183604 -0.00365686 -2.69142e-09 4.38878e-10 1.97837e-09 1.86654e-10 1.74305e-11
3642 1 0.000635 0.00340747 -0.0183656 -0.00361558 -2.36451e-09 4.51958e-09 2.52066e-08 1.95351e-11 1.65253e-11
3555 1 0.000635 0.00230529 -0.0189925 -0.00354749 -1.99457e-09 3.98924e-09 1.96726e-08 6.78383e-11 1.48128e-11
3815 1 0.000635 0.00560302 -0.0183566 -0.00349087 -2.88732e-10 -1.73561e-09 -1.11246e-08 1.49973e-12 1.21877e-11
3383 1 0.000635 0.000120177 -0.0177088 -0.00366994 -3.88157e-09 -2.21166e-09 -1.39007e-08 2.3769e-10 2.40804e-11
3470 1 0.000635 0.00121689 -0.0171152 -0.00391046 -1.79149e-09 5.38673e-11 2.01913e-10 1.79589e-10 3.27961e-11
3556 1 0.000635 0.00231259 -0.0177423 -0.00377528 -2.27741e-09 3.82162e-09 2.15354e-08 6.86717e-11 2.67221e-11
3643 1 0.000635 0.00341297 -0.0171098 -0.00381004 1.24002e-10 -2.15229e-09 -1.59696e-08 1.3056e-11 2.27112e-11
3729 1 0.000635 0.00450777 -0.0177328 -0.00364763 -9.26533e-10 1.9373e-10 4.425e-10 3.01799e-12 1.50235e-11
3816 1 0.000635 0.00560836 -0.0171009 -0.00368474 -9.90182e-10 -4.63108e-10 -2.33768e-09 1.92561e-12 1.44625e-11
3901 1 0.000635 0.00670407 -0.0177259 -0.00353585 1.20437e-10 -4.0576e-09 -2.46986e-08 9.75058e-12 1.36442e-11
3987 1 0.000635 0.0078045 -0.0170935 -0.00356961 -5.14403e-09 6.85116e-09 4.32149e-08 3.89394e-11 1.37395e-11
3384 1 0.000635 0.000122003 -0.0164759 -0.0039718 -2.63533e-09 -1.91154e-09 -1.11174e-08 2.90247e-10 2.85872e-11
3557 1 0.000635 0.00231846 -0.016487 -0.00397459 -1.37141e-09 9.44162e-10 6.34686e-09 5.91537e-11 3.88119e-11
3730 1 0.000635 0.00451259 -0.0164756 -0.00383165 -1.56992e-09 1.75748e-09 1.17452e-08 1.57707e-12 1.75676e-11
3902 1 0.000635 0.00670956 -0.0164709 -0.00373431 -1.0505e-09 -2.1981e-09 -1.41217e-08 1.5918e-11 1.7263e-11
4073 1 0.000635 0.00889956 -0.0164517 -0.0035431 -3.55346e-09 1.99511e-09 1.325e-08 8.50981e-11 7.32549e-12
3212 1 0.000635 -0.00201572 -0.0151254 -0.00376389 2.92082e-09 4.02102e-09 9.39681e-09 5.0961e-10 4.61371e-11
3298 1 0.000635 -0.000955737 -0.0158106 -0.0038932 7.84418e-10 1.31327e-09 3.71031e-09 4.5044e-10 6.50544e-11
3385 1 0.000635 0.000125692 -0.0152307 -0.00422047 -3.59256e-10 2.18162e-10 -1.49819e-09 2.45893e-10 1.74273e-11
3471 1 0.000635 0.00122309 -0.0158621 -0.00412359 -1.36896e-09 2.88433e-09 1.87408e-08 2.47867e-10 3.99769e-11
3558 1 0.000635 0.00232238 -0.0152272 -0.00414454 -1.24653e-09 1.8581e-09 1.3445e-08 3.2941e-11 4.86798e-11
3644 1 0.000635 0.00341737 -0.0158513 -0.00398712 -8.96949e-10 2.20221e-10 2.00586e-09 6.40327e-12 2.78529e-11
3731 1 0.000635 0.00451693 -0.015217 -0.00400684 -2.8881e-10 -1.36638e-09 -1.07881e-08 1.6661e-12 1.87146e-11
3817 1 0.000635 0.00561327 -0.015844 -0.00387066 -2.56693e-09 4.48996e-09 3.09249e-08 2.94262e-12 1.54339e-11
3903 1 0.000635 0.00671457 -0.0152145 -0.00392362 -2.20406e-09 1.98389e-09 1.44597e-08 2.30949e-11 1.91926e-11
3988 1 0.000635 0.00781013 -0.0158391 -0.00377093 -8.11002e-10 -2.95649e-09 -1.66909e-08 7.13397e-11 2.08083e-11
4074 1 0.000635 0.00890391 -0.015196 -0.00373174 -8.74618e-09 5.58285e-09 3.80812e-08 1.18042e-10 1.20076e-11
2868 1 0.000635 -0.00639728 -0.0138306 -0.00348296 9.78538e-10 1.60902e-09 2.14112e-09 5.42809e-11 1.34413e-12
3040 1 0.000635 -0.00423719 -0.013904 -0.00389234 -9.97965e-10 -3.23113e-09 -9.56687e-09 1.71276e-10 9.582e-12
3126 1 0.000635 -0.00313061 -0.014525 -0.00385 2.01517e-09 2.72464e-09 6.01828e-09 3.30684e-10 2.08495e-11
3213 1 0.000635 -0.00206943 -0.0139578 -0.00425813 4.31585e-10 1.53666e-10 -4.25911e-11 3.5951e-10 7.13669e-11
3299 1 0.000635 -0.000972041 -0.0145947 -0.00425618 -9.04149e-11 -1.13118e-10 -1.80043e-09 3.54521e-10 4.63933e-11
3386 1 0.000635 0.000127184 -0.013969 -0.00436791 -1.62489e-10 -4.17636e-10 -6.54221e-09 2.82964e-10 1.16165e-11
3472 1 0.000635 0.00122605 -0.0146006 -0.00428054 -1.10128e-10 -4.46756e-10 -6.71727e-09 1.34755e-10 3.52683e-11
3559 1 0.000635 0.00232518 -0.0139648 -0.00429495 -1.54203e-09 3.04132e-09 2.68122e-08 3.81808e-11 7.69514e-11
3732 1 0.000635 0.00452086 -0.0139575 -0.00417415 -5.52224e-10 1.62602e-10 -1.59896e-10 4.68787e-12 1.94188e-11
3645 1 0.000635 0.00342107 -0.0145912 -0.00415228 -1.46794e-09 2.39889e-09 1.86401e-08 6.56536e-12 3.24151e-11
3818 1 0.000635 0.00561774 -0.0145858 -0.00404768 -6.22037e-10 -1.0984e-09 -1.0063e-08 4.12035e-12 1.42601e-11
3904 1 0.000635 0.00671899 -0.0139558 -0.0040983 -2.16671e-09 5.04995e-09 3.4782e-08 2.77725e-11 1.7577e-11
3989 1 0.000635 0.00781526 -0.0145829 -0.00396193 -2.99863e-09 1.97905e-09 1.20689e-08 1.38199e-10 2.65681e-11
4075 1 0.000635 0.00890845 -0.0139395 -0.00391332 -3.32474e-09 1.88528e-09 1.3329e-08 1.68706e-10 1.46327e-11
4160 1 0.000635 0.00996454 -0.0145291 -0.00352587 -7.93475e-09 4.81282e-09 3.10267e-08 1.68903e-10 1.96324e-11
2698 1 0.000635 -0.00860375 -0.012574 -0.00353716 8.89054e-10 1.39425e-09 -9.11118e-10 6.04767e-11 1.7569e-12
2783 1 0.000635 -0.00750129 -0.0132038 -0.00351313 2.07467e-09 4.03771e-09 7.02209e-09 5.51603e-11 7.19938e-13
2869 1 0.000635 -0.0064422 -0.0126453 -0.00393677 2.51173e-09 4.50899e-09 1.01053e-08 1.40726e-10 3.09568e-12
2954 1 0.000635 -0.00534026 -0.0132757 -0.00391686 7.51627e-10 1.18557e-09 1.59677e-09 1.4876e-10 4.27462e-12
3041 1 0.000635 -0.00426644 -0.0126876 -0.00425507 6.64538e-10 4.7176e-10 2.51479e-09 2.42397e-10 2.49465e-11
3127 1 0.000635 -0.00316718 -0.0133218 -0.00425314 -4.69477e-10 -1.23599e-09 -6.11052e-09 2.78453e-10 6.7776e-11
3214 1 0.000635 -0.0020727 -0.0127 -0.004428 -4.1926e-05 1.84796e-05 2.48098e-06 3.13806e-10 1.92244e-11
3300 1 0.000635 -0.000972829 -0.0133347 -0.00441063 1.73673e-11 -7.04425e-11 -2.72644e-09 2.29641e-10 1.07367e-11
3387 1 0.000635 0.000127 -0.0127 -0.004428 2.0045e-05 -3.09268e-05 1.24669e-06 5.07435e-11 4.10346e-12
3473 1 0.000635 0.00122687 -0.0133345 -0.00438871 -4.58774e-10 6.94376e-10 8.57008e-09 3.80285e-11 1.29013e-11
3560 1 0.000635 0.0023267 -0.0127 -0.004428 3.32389e-05 -0.000137647 2.16667e-05 5.10872e-11 6.24835e-11
3646 1 0.000635 0.00342413 -0.0133297 -0.00430672 -1.99744e-11 -3.13938e-10 -3.83246e-09 4.54379e-11 4.27559e-11
3733 1 0.000635 0.00452436 -0.0126961 -0.00432464 -1.66157e-10 6.01656e-11 -1.02145e-09 3.54377e-11 8.80197e-12
3819 1 0.000635 0.0056217 -0.0133258 -0.00421014 -9.29769e-10 1.69104e-09 1.09097e-08 6.93245e-12 8.84592e-12
3905 1 0.000635 0.00672261 -0.0126942 -0.00424944 2.33219e-10 -7.88738e-10 -7.50131e-09 2.93776e-11 1.22456e-11
3990 1 0.000635 0.00781952 -0.0133235 -0.00413252 1.84798e-09 -3.60841e-09 -3.06884e-08 1.16155e-10 2.50371e-11
4076 1 0.000635 0.00891388 -0.0126816 -0.00408502 -1.21328e-10 -3.58461e-10 -1.66214e-10 1.89595e-10 1.15096e-11
4161 1 0.000635 0.00994273 -0.0132638 -0.00362133 -4.65537e-11 1.45216e-09 2.73392e-09 2.57255e-10 4.00312e-11
2613 1 0.000635 -0.00970505 -0.0119424 -0.00355706 3.43599e-09 5.69143e-09 9.41958e-09 7.06515e-11 3.97176e-12
2784 1 0.000635 -0.00754374 -0.0120142 -0.00395625 7.6343e-10 1.0167e-09 -1.52077e-09 1.43623e-10 5.43415e-12
2870 1 0.000635 -0.00646633 -0.0114201 -0.00427038 -5.76008e-10 -1.28356e-09 -1.0373e-08 2.01687e-10 5.81741e-12
2955 1 0.000635 -0.00536623 -0.0120537 -0.00426118 -1.31054e-10 -9.1144e-10 -6.60128e-09 2.15423e-10 9.54389e-12
3042 1 0.000635 -0.00427241 -0.01143 -0.004428 -7.38628e-06 2.73041e-05 -3.59528e-07 1.80156e-10 4.89755e-12
3128 1 0.000635 -0.00317256 -0.012065 -0.004428 -2.25354e-05 4.38524e-05 -1.92742e-06 2.14775e-10 1.78263e-11
3215 1 0.000635 -0.0020727 -0.01143 -0.004428 5.35983e-09 -5.93801e-08 -3.02369e-06 8.6898e-11 5.17148e-36
3301 1 0.000635 -0.000972852 -0.012065 -0.004428 3.00201e-08 7.65624e-06 -2.89747e-06 7.5694e-11 2.72422e-13
3388 1 0.000635 0.000127 -0.01143 -0.004428 -1.61889e-09 0 -5.29815e-07 5.30809e-12 5.17148e-36
3474 1 0.000635 0.00122685 -0.012065 -0.004428 -5.96665e-09 -7.26335e-06 -9.12725e-07 3.13481e-11 2.37724e-13
3561 1 0.000635 0.0023267 -0.01143 -0.004428 2.92839e-09 -1.82104e-08 -2.08295e-06 4.17466e-11 5.17148e-36
3647 1 0.000635 0.00342656 -0.012065 -0.004428 2.20758e-05 -4.02527e-05 7.95465e-06 4.14711e-11 6.50229e-12
3734 1 0.000635 0.00452641 -0.01143 -0.004428 9.92481e-06 -2.07544e-05 4.76073e-06 2.94733e-11 1.64763e-12
3820 1 0.000635 0.00562475 -0.0120626 -0.00434456 3.28372e-10 -7.97121e-10 -1.09947e-08 2.64489e-11 4.24543e-12
3906 1 0.000635 0.00672508 -0.0114289 -0.00436531 -6.02103e-10 1.83849e-09 2.43521e-08 3.61534e-11 7.56366e-12
3991 1 0.000635 0.00782307 -0.0120609 -0.00427764 -5.00361e-10 9.40206e-10 8.38567e-09 1.62831e-10 2.0234e-11
4077 1 0.000635 0.00892033 -0.011422 -0.00424404 -5.80153e-10 5.20171e-10 5.10526e-09 1.70055e-10 4.78569e-12
4162 1 0.000635 0.00997732 -0.012021 -0.00387445 2.37465e-10 -2.7593e-10 6.50549e-10 2.18138e-10 4.26129e-11
2444 1 0.000635 -0.0119026 -0.0106705 -0.00357884 -6.3268e-09 -1.18735e-08 -3.28909e-08 1.8771e-10 1.30377e-11
2528 1 0.000635 -0.010805 -0.0113085 -0.00357223 -3.01176e-09 -6.13142e-09 -1.8892e-08 9.46427e-11 7.04229e-12
2614 1 0.000635 -0.00974612 -0.0107517 -0.00399767 3.77027e-10 8.97622e-10 -1.90116e-09 1.77417e-10 3.17698e-11
2699 1 0.000635 -0.00864503 -0.0113829 -0.00397638 -7.99287e-10 -2.00129e-09 -1.15029e-08 1.56384e-10 1.33637e-11
2785 1 0.000635 -0.00756657 -0.0107867 -0.00428188 -8.32723e-10 -1.56806e-09 -1.17041e-08 1.96211e-10 8.988e-12
2956 1 0.000635 -0.00537226 -0.010795 -0.004428 5.47429e-06 1.81221e-05 -6.53108e-08 1.64593e-10 1.23249e-12
3129 1 0.000635 -0.00317256 -0.010795 -0.004428 -1.76016e-08 -5.16886e-08 -3.01451e-06 8.6419e-11 6.46435e-36
3302 1 0.000635 -0.000972852 -0.010795 -0.004428 -2.07972e-10 0 -1.53215e-07 4.43765e-13 5.17148e-36
3475 1 0.000635 0.00122685 -0.010795 -0.004428 -1.94951e-10 1.69407e-21 -3.46487e-07 2.26955e-12 5.17148e-36
3648 1 0.000635 0.00342656 -0.010795 -0.004428 1.53786e-08 -1.0364e-08 -1.80495e-06 3.19055e-11 1.0343e-35
3821 1 0.000635 0.00562626 -0.010795 -0.004428 4.53885e-06 -1.91962e-05 3.25703e-06 2.0795e-11 1.38213e-12
3992 1 0.000635 0.00782527 -0.0107945 -0.0043821 9.29927e-10 -1.61617e-09 -2.61767e-08 1.14556e-10 1.33262e-11
4163 1 0.000635 0.0100043 -0.0107742 -0.00410987 4.74934e-09 -3.04032e-09 -1.23173e-08 1.78698e-10 2.10246e-11
4248 1 0.000635 0.011025 -0.0113509 -0.00362065 1.40809e-08 -8.7812e-09 -3.70525e-08 1.1412e-10 3.18834e-11
2110 1 0.000635 -0.0163021 -0.00951028 -0.00363445 -3.55179e-10 1.18212e-09 -1.93023e-09 2.4806e-10 2.65762e-11
2276 1 0.000635 -0.014107 -0.00941734 -0.00364899 1.37859e-10 2.41527e-09 -3.66198e-10 7.45465e-10 3.70751e-11
2360 1 0.000635 -0.0129951 -0.0100243 -0.00356943 -3.22831e-09 -6.44905e-09 -1.9617e-08 4.06184e-10 2.57253e-11
2445 1 0.000635 -0.0119498 -0.00949515 -0.0040579 -1.29117e-09 -2.40324e-09 -1.11263e-08 2.76456e-10 8.67675e-11
2529 1 0.000635 -0.0108474 -0.0101218 -0.00402317 -9.45974e-10 -1.75548e-09 -8.74066e-09 2.04474e-10 6.18113e-11
2615 1 0.000635 -0.00976712 -0.00951989 -0.00430837 -6.74446e-10 -7.61259e-10 -7.64934e-09 2.1001e-10 3.19345e-11
2700 1 0.000635 -0.00866686 -0.0101534 -0.00429502 -5.97347e-10 -1.05212e-09 -8.98648e-09 1.97754e-10 1.83849e-11
2786 1 0.000635 -0.00757197 -0.009525 -0.004428 2.94352e-05 8.38469e-06 -7.54285e-07 1.48585e-10 5.61646e-12
2871 1 0.000635 -0.00647211 -0.01016 -0.004428 1.75611e-05 1.25996e-05 -3.2215e-07 1.5517e-10 1.92805e-12
2957 1 0.000635 -0.00537226 -0.009525 -0.004428 -3.34076e-08 -3.42611e-08 -2.76069e-06 7.26955e-11 3.74932e-35
3043 1 0.000635 -0.00427241 -0.01016 -0.004428 -2.76742e-08 -4.32694e-08 -2.91612e-06 8.09735e-11 2.71503e-35
3130 1 0.000635 -0.00317256 -0.009525 -0.004428 2.0671e-17 0 2.16e-11 1.05285e-24 6.46435e-36
3216 1 0.000635 -0.0020727 -0.01016 -0.004428 -6.77626e-21 0 2.16e-11 0 5.17148e-36
3303 1 0.000635 -0.000972852 -0.009525 -0.004428 0 0 2.16e-11 0 5.17148e-36
3389 1 0.000635 0.000127 -0.01016 -0.004428 0 0 2.16e-11 0 5.17148e-36
3476 1 0.000635 0.00122685 -0.009525 -0.004428 0 0 2.16e-11 0 5.17148e-36
3562 1 0.000635 0.0023267 -0.01016 -0.004428 0 0 2.16e-11 0 5.17148e-36
3649 1 0.000635 0.00342656 -0.009525 -0.004428 4.13115e-17 0 2.16e-11 0 1.0343e-35
3735 1 0.000635 0.00452641 -0.01016 -0.004428 1.61002e-08 -3.45217e-09 -1.46417e-06 2.15079e-11 3.10289e-35
3822 1 0.000635 0.00562626 -0.009525 -0.004428 1.3087e-08 -4.87265e-10 -1.14058e-06 1.33428e-11 3.74932e-35
3907 1 0.000635 0.00672611 -0.01016 -0.004428 -5.27548e-07 -2.3399e-05 1.7783e-06 2.56369e-11 2.55118e-12
3993 1 0.000635 0.00782597 -0.009525 -0.004428 -9.1103e-06 -1.42741e-05 -2.72208e-07 7.49684e-11 2.23321e-12
4078 1 0.000635 0.00892497 -0.0101585 -0.00437074 -1.49713e-09 1.44166e-09 2.48811e-08 1.79355e-10 8.74289e-12
4164 1 0.000635 0.0100208 -0.0095193 -0.00430171 -1.10702e-09 8.11992e-10 8.88175e-09 2.01222e-10 2.25943e-11
4249 1 0.000635 0.0110724 -0.0101169 -0.00391371 9.40992e-10 4.19817e-11 -9.21617e-10 1.44893e-10 3.1057e-11
4334 1 0.000635 0.0121368 -0.00945699 -0.00370739 -2.54192e-09 2.50603e-09 6.13108e-09 6.138e-11 2.43992e-11
2028 1 0.000635 -0.017407 -0.00888813 -0.0035763 -9.62029e-10 3.08079e-10 -6.17635e-09 1.85254e-10 2.33433e-11
2111 1 0.000635 -0.0163326 -0.00825349 -0.00381684 -1.36403e-10 5.65392e-10 -2.63437e-09 2.94184e-10 3.15687e-11
2193 1 0.000635 -0.0152311 -0.00888006 -0.00389239 -3.31422e-10 -7.65195e-11 -5.34114e-09 4.30938e-10 2.93516e-11
2277 1 0.000635 -0.0141592 -0.00825146 -0.00415016 -4.9434e-10 2.08391e-10 -5.72012e-09 4.04376e-10 4.50428e-11
2361 1 0.000635 -0.0130539 -0.0088723 -0.00410104 -7.86125e-10 -4.97309e-10 -6.41272e-09 5.01184e-10 7.8315e-11
2446 1 0.000635 -0.0119683 -0.00825317 -0.0043241 2.23306e-10 5.42381e-10 2.19772e-09 2.73047e-10 8.63638e-12
2530 1 0.000635 -0.0108676 -0.00888667 -0.00432067 -4.33342e-10 -3.19585e-10 -4.23832e-09 2.51916e-10 2.27238e-11
2616 1 0.000635 -0.00977167 -0.008255 -0.004428 2.35226e-05 -1.37117e-05 1.30819e-06 1.30958e-10 8.26029e-12
2701 1 0.000635 -0.00867182 -0.00889 -0.004428 3.99123e-05 3.65404e-06 -1.12924e-06 1.42002e-10 1.13863e-11
2787 1 0.000635 -0.00757197 -0.008255 -0.004428 -3.8081e-08 -1.64113e-08 -2.34436e-06 5.26453e-11 4.0079e-35
2872 1 0.000635 -0.00647211 -0.00889 -0.004428 -3.65855e-08 -2.5014e-08 -2.56357e-06 6.28206e-11 3.74932e-35
2958 1 0.000635 -0.00537226 -0.008255 -0.004428 1.44607e-16 -7.15799e-17 2.16e-11 5.26426e-25 4.0079e-35
3044 1 0.000635 -0.00427241 -0.00889 -0.004428 -1.03289e-16 -4.76841e-17 2.16e-11 1.05285e-24 2.71503e-35
3131 1 0.000635 -0.00317256 -0.008255 -0.004428 3.09912e-17 -7.75431e-17 2.16e-11 5.26426e-25 1.87466e-35
3217 1 0.000635 -0.0020727 -0.00889 -0.004428 -3.38813e-21 -4.76866e-17 2.16e-11 0 5.17148e-36
3304 1 0.000635 -0.000972852 -0.008255 -0.004428 0 -7.15833e-17 2.16e-11 0 1.0343e-35
3390 1 0.000635 0.000127 -0.00889 -0.004428 0 -4.76866e-17 2.16e-11 0 5.17148e-36
3477 1 0.000635 0.00122685 -0.008255 -0.004428 0 -7.15833e-17 2.16e-11 0 1.0343e-35
3563 1 0.000635 0.0023267 -0.00889 -0.004428 0 -4.76858e-17 2.16e-11 0 5.17148e-36
3650 1 0.000635 0.00342656 -0.008255 -0.004428 4.13098e-17 -7.15825e-17 2.16e-11 0 1.0343e-35
3736 1 0.000635 0.00452641 -0.00889 -0.004428 4.13115e-17 -4.76841e-17 2.16e-11 0 3.10289e-35
3823 1 0.000635 0.00562626 -0.008255 -0.004428 -1.446e-16 -7.15791e-17 2.16e-11 0 4.0079e-35
3908 1 0.000635 0.00672611 -0.00889 -0.004428 5.20056e-09 -6.73682e-09 -1.05769e-06 1.0601e-11 1.68073e-35
3994 1 0.000635 0.00782597 -0.008255 -0.004428 -4.94125e-09 -1.91854e-08 -1.5192e-06 2.66375e-11 1.0343e-35
4079 1 0.000635 0.00892582 -0.00889 -0.004428 -3.53158e-05 3.20285e-05 -4.96836e-06 1.48142e-10 8.30717e-12
4165 1 0.000635 0.0100257 -0.008255 -0.004428 7.56271e-05 -1.14218e-05 1.76434e-05 2.00303e-10 2.67257e-11
4250 1 0.000635 0.0111028 -0.00887137 -0.00415636 3.75253e-09 -2.55436e-09 -1.58709e-08 2.1042e-10 2.38209e-11
4335 1 0.000635 0.0121815 -0.00822137 -0.00399517 5.66384e-09 -4.01791e-09 -2.05048e-08 1.80532e-10 1.51427e-11
4419 1 0.000635 0.0132002 -0.00879594 -0.00349908 -1.11589e-09 1.36927e-09 6.31743e-10 3.59024e-11 1.90004e-11
2029 1 0.000635 -0.0174163 -0.00761909 -0.00362898 2.29473e-09 7.99002e-10 1.10324e-08 6.19712e-11 2.11097e-11
2112 1 0.000635 -0.0163352 -0.00698357 -0.00383484 2.47697e-09 5.03808e-10 1.21439e-08 5.69771e-11 2.76708e-11
2194 1 0.000635 -0.0152529 -0.00761796 -0.00403138 5.6755e-10 5.28671e-10 1.30234e-09 2.38502e-10 4.63904e-11
2278 1 0.000635 -0.0141641 -0.00698312 -0.00419824 -1.36023e-09 2.10699e-10 -1.27688e-08 3.58037e-10 5.14215e-11
2362 1 0.000635 -0.0130686 -0.00761856 -0.00430152 -1.15646e-10 2.24368e-10 -2.16813e-09 2.78505e-10 1.29609e-11
2447 1 0.000635 -0.0119711 -0.00698472 -0.00438609 -1.462e-10 4.61641e-11 -4.85203e-09 8.91021e-11 6.00049e-12
2531 1 0.000635 -0.0108715 -0.00761997 -0.00441552 -2.7672e-10 -3.34693e-10 -1.06939e-08 1.11048e-10 2.66844e-12
2617 1 0.000635 -0.00977167 -0.006985 -0.004428 -9.05075e-07 -5.00109e-07 -1.76855e-06 3.16605e-11 4.47676e-15
2702 1 0.000635 -0.00867182 -0.00762 -0.004428 -3.96735e-08 -6.92845e-09 -2.11949e-06 4.30669e-11 2.9736e-35
2788 1 0.000635 -0.00757197 -0.006985 -0.004428 1.44605e-16 -2.38958e-17 2.16e-11 0 4.0079e-35
2873 1 0.000635 -0.00647211 -0.00762 -0.004428 -1.44609e-16 2.38967e-17 2.16e-11 0 4.0079e-35
2959 1 0.000635 -0.00537226 -0.006985 -0.004428 1.44605e-16 -2.38958e-17 2.16e-11 0 4.0079e-35
3045 1 0.000635 -0.00427241 -0.00762 -0.004428 -1.13623e-16 2.98573e-17 2.16e-11 0 2.90896e-35
3132 1 0.000635 -0.00317256 -0.006985 -0.004428 3.09912e-17 -2.98573e-17 2.16e-11 0 1.87466e-35
3218 1 0.000635 -0.0020727 -0.00762 -0.004428 -1.69407e-21 2.38958e-17 2.16e-11 0 1.0343e-35
3305 1 0.000635 -0.000972852 -0.006985 -0.004428 0 -2.38967e-17 2.16e-11 0 1.0343e-35
3391 1 0.000635 0.000127 -0.00762 -0.004428 0 2.38967e-17 2.16e-11 0 1.0343e-35
3478 1 0.000635 0.00122685 -0.006985 -0.004428 0 -2.38967e-17 2.16e-11 0 1.0343e-35
3564 1 0.000635 0.0023267 -0.00762 -0.004428 0 2.38967e-17 2.16e-11 0 1.0343e-35
3651 1 0.000635 0.00342656 -0.006985 -0.004428 4.13081e-17 -2.38967e-17 2.16e-11 0 1.0343e-35
3737 1 0.000635 0.00452641 -0.00762 -0.004428 4.13217e-17 2.38958e-17 2.16e-11 0 2.06859e-35
3824 1 0.000635 0.00562626 -0.006985 -0.004428 -1.44599e-16 -2.3895e-17 2.16e-11 0 4.0079e-35
3909 1 0.000635 0.00672611 -0.00762 -0.004428 6.19757e-17 2.38958e-17 2.16e-11 0 2.9736e-35
3995 1 0.000635 0.00782597 -0.006985 -0.004428 -6.77626e-21 -2.38967e-17 2.16e-11 0 1.0343e-35
4080 1 0.000635 0.00892582 -0.00762 -0.004428 -1.36598e-08 -3.6555e-08 -2.89992e-06 1.14513e-10 1.0343e-35
4166 1 0.000635 0.0100257 -0.006985 -0.004428 -3.43097e-05 1.97599e-05 -4.98559e-06 1.59032e-10 7.20432e-12
4251 1 0.000635 0.0111234 -0.00761809 -0.00435577 -2.09099e-10 1.97898e-10 3.09375e-09 2.12451e-10 3.69058e-11
4336 1 0.000635 0.012214 -0.00697662 -0.00424347 -4.35835e-10 5.55821e-10 8.0559e-10 2.13478e-10 1.17381e-11
4420 1 0.000635 0.0132499 -0.00756387 -0.00380137 6.27211e-09 -4.45132e-09 -2.1848e-08 1.44032e-10 1.73881e-11
4505 1 0.000635 0.0143057 -0.00689742 -0.00357301 7.94972e-09 -5.56854e-09 -2.74532e-08 1.31428e-10 2.25041e-11
2030 1 0.000635 -0.0174132 -0.00634914 -0.00361571 2.46889e-09 5.28188e-10 1.22854e-08 8.66905e-12 1.12454e-11
2113 1 0.000635 -0.0163291 -0.00571402 -0.00380543 8.44032e-10 4.24186e-10 3.37556e-09 5.69146e-12 1.18197e-11
2195 1 0.000635 -0.0152492 -0.00634839 -0.00401609 1.43353e-09 1.98647e-10 5.98175e-09 4.97336e-11 2.90516e-11
2279 1 0.000635 -0.014159 -0.00571374 -0.00417058 6.15632e-10 6.07394e-11 2.16081e-09 2.21262e-11 2.4066e-11
2363 1 0.000635 -0.0130688 -0.00634913 -0.00431457 -1.44819e-10 8.57402e-11 -3.45672e-09 7.65019e-11 2.13878e-11
2448 1 0.000635 -0.0119712 -0.00571495 -0.00439997 -2.13762e-10 6.08551e-12 -4.93949e-09 2.71506e-11 6.70216e-12
2532 1 0.000635 -0.0108715 -0.00635 -0.004428 -2.39125e-05 -6.42207e-06 6.2155e-07 2.25096e-11 1.95767e-12
2618 1 0.000635 -0.00977167 -0.005715 -0.004428 5.49645e-10 -9.52013e-10 -3.69482e-07 2.58087e-12 6.85221e-35
2703 1 0.000635 -0.00867182 -0.00635 -0.004428 6.46561e-11 -1.11988e-10 -1.1002e-07 2.28838e-13 2.9736e-35
2789 1 0.000635 -0.00757197 -0.005715 -0.004428 1.44602e-16 4.76832e-17 2.16e-11 0 3.74932e-35
2874 1 0.000635 -0.00647211 -0.00635 -0.004428 -1.44609e-16 7.15816e-17 2.16e-11 0 4.0079e-35
2960 1 0.000635 -0.00537226 -0.005715 -0.004428 1.44604e-16 4.76841e-17 2.16e-11 5.26426e-25 3.74932e-35
3046 1 0.000635 -0.00427241 -0.00635 -0.004428 -1.13621e-16 7.75431e-17 2.16e-11 0 2.90896e-35
3133 1 0.000635 -0.00317256 -0.005715 -0.004428 2.0671e-17 4.76858e-17 2.16e-11 5.26426e-25 6.46435e-36
3219 1 0.000635 -0.0020727 -0.00635 -0.004428 -5.0822e-21 7.15842e-17 2.16e-11 0 1.0343e-35
3306 1 0.000635 -0.000972852 -0.005715 -0.004428 0 4.76866e-17 2.16e-11 0 5.17148e-36
3392 1 0.000635 0.000127 -0.00635 -0.004428 0 7.1585e-17 2.16e-11 0 1.0343e-35
3479 1 0.000635 0.00122685 -0.005715 -0.004428 0 4.76866e-17 2.16e-11 0 5.17148e-36
3565 1 0.000635 0.0023267 -0.00635 -0.004428 0 7.15842e-17 2.16e-11 0 1.0343e-35
3652 1 0.000635 0.00342656 -0.005715 -0.004428 4.13098e-17 4.76858e-17 2.16e-11 0 1.0343e-35
3738 1 0.000635 0.00452641 -0.00635 -0.004428 4.13183e-17 7.15816e-17 2.16e-11 0 2.06859e-35
3825 1 0.000635 0.00562626 -0.005715 -0.004428 -1.44597e-16 4.76841e-17 2.16e-11 0 3.74932e-35
3910 1 0.000635 0.00672611 -0.00635 -0.004428 6.19774e-17 7.15825e-17 2.16e-11 0 2.9736e-35
3996 1 0.000635 0.00782597 -0.005715 -0.004428 -6.77626e-21 4.76849e-17 2.16e-11 0 5.17148e-36
4081 1 0.000635 0.00892582 -0.00635 -0.004428 -2.64132e-09 -4.57491e-09 -6.37412e-07 7.68528e-12 1.0343e-35
4167 1 0.000635 0.0100257 -0.005715 -0.004428 -6.96505e-09 -1.20638e-08 -1.62816e-06 5.03681e-11 6.85221e-35
4252 1 0.000635 0.0111255 -0.00635 -0.004428 -4.3221e-05 -4.17111e-06 -3.04787e-06 1.90734e-10 6.25186e-12
4337 1 0.000635 0.0122243 -0.00571494 -0.00439169 6.40982e-10 -3.70889e-10 -1.23063e-08 2.2432e-10 1.44264e-11
4421 1 0.000635 0.013294 -0.00632764 -0.00408783 -2.96574e-09 2.4122e-09 5.13744e-09 3.12575e-10 2.02601e-11
2031 1 0.000635 -0.0174077 -0.00507947 -0.00358853 -1.14075e-09 7.02982e-10 -6.58194e-09 8.46174e-13 5.02394e-12
2196 1 0.000635 -0.0152426 -0.00507907 -0.0039808 -4.77439e-10 3.4115e-10 -4.0228e-09 5.16833e-12 1.1821e-11
2364 1 0.000635 -0.0130666 -0.00507928 -0.004309 -1.58077e-10 8.55769e-11 -2.66716e-09 3.72254e-11 3.37806e-11
2533 1 0.000635 -0.0108715 -0.00508 -0.004428 -5.41673e-06 -3.14391e-06 -1.11321e-06 3.03936e-11 1.76471e-13
2704 1 0.000635 -0.00867182 -0.00508 -0.004428 -6.19774e-17 -2.3845e-17 2.16e-11 0 1.42216e-35
2875 1 0.000635 -0.00647211 -0.00508 -0.004428 -1.44605e-16 -2.38442e-17 2.16e-11 0 3.49075e-35
3047 1 0.000635 -0.00427241 -0.00508 -0.004428 -1.03287e-16 -2.38433e-17 2.16e-11 1.57928e-24 2.45645e-35
3220 1 0.000635 -0.0020727 -0.00508 -0.004428 -3.38813e-21 -2.38442e-17 2.16e-11 0 2.58574e-36
3393 1 0.000635 0.000127 -0.00508 -0.004428 0 -2.38442e-17 2.16e-11 0 2.58574e-36
3566 1 0.000635 0.0023267 -0.00508 -0.004428 -3.38813e-21 -2.38459e-17 2.16e-11 0 2.58574e-36
3739 1 0.000635 0.00452641 -0.00508 -0.004428 4.13081e-17 -2.38433e-17 2.16e-11 5.26426e-25 2.84431e-35
3911 1 0.000635 0.00672611 -0.00508 -0.004428 6.19859e-17 -2.38442e-17 2.16e-11 0 1.42216e-35
4082 1 0.000635 0.00892582 -0.00508 -0.004428 -8.47033e-21 -2.3845e-17 2.16e-11 0 2.58574e-36
4253 1 0.000635 0.0111255 -0.00508 -0.004428 -2.07832e-05 1.19562e-05 -3.63341e-06 1.23246e-10 2.63407e-12
4422 1 0.000635 0.0133202 -0.00507839 -0.0043164 2.72959e-10 3.89818e-10 -3.0393e-09 2.52656e-10 1.06789e-11
4506 1 0.000635 0.0143552 -0.00566533 -0.00387423 4.39463e-09 -2.42136e-09 -1.61169e-08 3.76555e-10 4.91328e-11
4590 1 0.000635 0.0154682 -0.00505618 -0.00385566 2.21946e-09 1.49672e-09 -6.9046e-09 2.58931e-10 2.75665e-11
2032 1 0.000635 -0.0174033 -0.00380971 -0.00356608 -3.66125e-10 4.21446e-10 -2.14629e-09 3.2678e-13 2.76011e-12
2114 1 0.000635 -0.0163232 -0.00444446 -0.00377489 -3.29739e-09 7.18444e-10 -1.89846e-08 9.39128e-13 5.35548e-12
2197 1 0.000635 -0.0152376 -0.00380952 -0.0039546 -2.51856e-09 4.04098e-10 -1.49884e-08 1.89361e-12 6.20651e-12
2280 1 0.000635 -0.0141542 -0.00444429 -0.00414527 1.4995e-10 1.05083e-10 2.08599e-10 1.08241e-11 1.3546e-11
2365 1 0.000635 -0.0130643 -0.00380975 -0.00429993 1.45329e-12 9.3374e-11 -2.04264e-11 5.28145e-11 1.62446e-11
2449 1 0.000635 -0.0119714 -0.004445 -0.004428 -8.40638e-05 -3.06216e-05 1.4131e-05 4.96175e-11 2.51204e-11
2534 1 0.000635 -0.0108715 -0.00381 -0.004428 -2.4017e-08 -1.55655e-08 -2.18873e-06 4.54799e-11 4.65433e-35
2619 1 0.000635 -0.00977167 -0.004445 -0.004428 -2.5604e-10 4.43474e-10 -2.47132e-07 1.1545e-12 6.01185e-35
2705 1 0.000635 -0.00867182 -0.00381 -0.004428 -8.2623e-17 0 2.16e-11 1.05285e-24 2.06859e-35
2790 1 0.000635 -0.00757197 -0.004445 -0.004428 1.44602e-16 -5.96282e-17 2.16e-11 5.26426e-25 3.74932e-35
2876 1 0.000635 -0.00647211 -0.00381 -0.004428 -1.44605e-16 0 2.16e-11 0 3.23218e-35
2961 1 0.000635 -0.00537226 -0.004445 -0.004428 1.44604e-16 -5.9629e-17 2.16e-11 5.26426e-25 3.74932e-35
3048 1 0.000635 -0.00427241 -0.00381 -0.004428 -1.03291e-16 0 2.16e-11 0 1.68073e-35
3134 1 0.000635 -0.00317256 -0.004445 -0.004428 3.09963e-17 -5.36693e-17 2.16e-11 1.57928e-24 8.40366e-36
3221 1 0.000635 -0.0020727 -0.00381 -0.004428 -6.77626e-21 0 2.16e-11 2.10571e-24 0
3307 1 0.000635 -0.000972852 -0.004445 -0.004428 0 -4.77053e-17 2.16e-11 1.05285e-24 5.17148e-36
3394 1 0.000635 0.000127 -0.00381 -0.004428 0 0 2.16e-11 1.05285e-24 0
3480 1 0.000635 0.00122685 -0.004445 -0.004428 0 -4.77053e-17 2.16e-11 1.05285e-24 5.17148e-36
3567 1 0.000635 0.0023267 -0.00381 -0.004428 0 0 2.16e-11 2.10571e-24 0
3653 1 0.000635 0.00342656 -0.004445 -0.004428 3.09811e-17 -5.36701e-17 2.16e-11 1.05285e-24 8.40366e-36
3740 1 0.000635 0.00452641 -0.00381 -0.004428 4.13217e-17 7.70372e-34 2.16e-11 0 1.29287e-35
3826 1 0.000635 0.00562626 -0.004445 -0.004428 -1.44597e-16 -5.9629e-17 2.16e-11 5.26426e-25 3.74932e-35
3912 1 0.000635 0.00672611 -0.00381 -0.004428 8.26298e-17 0 2.16e-11 1.05285e-24 2.06859e-35
3997 1 0.000635 0.00782597 -0.004445 -0.004428 -3.38813e-21 -4.77061e-17 2.16e-11 1.05285e-24 5.17148e-36
4083 1 0.000635 0.00892582 -0.00381 -0.004428 -6.77626e-21 0 2.16e-11 1.05285e-24 0
4168 1 0.000635 0.0100257 -0.004445 -0.004428 2.146e-09 3.71697e-09 -3.20366e-07 1.94055e-12 6.01185e-35
4254 1 0.000635 0.0111255 -0.00381 -0.004428 1.0995e-08 -1.64219e-09 -1.64607e-06 2.66349e-11 4.65433e-35
4338 1 0.000635 0.0122254 -0.004445 -0.004428 2.84441e-05 6.28691e-06 1.32405e-06 2.16949e-10 1.46258e-11
4423 1 0.000635 0.0133239 -0.00380931 -0.00436215 1.07591e-09 5.21907e-11 -8.78149e-09 1.45547e-10 2.68155e-11
4507 1 0.000635 0.0144142 -0.00444251 -0.00420999 1.61539e-09 -2.73624e-10 -9.40915e-09 2.20161e-10 9.17077e-12
4591 1 0.000635 0.0155071 -0.00380801 -0.00408451 3.92974e-09 -1.08874e-09 -2.03758e-08 1.52248e-10 1.34308e-11
4673 1 0.000635 0.0165743 -0.00443567 -0.00380043 4.07986e-09 -1.04328e-09 -1.78323e-08 1.33037e-10 6.56463e-12
4756 1 0.000635 0.0176719 -0.00380626 -0.00369192 1.1082e-09 5.28941e-10 -9.66672e-10 1.00331e-10 6.80969e-12
2033 1 0.000635 -0.0174005 -0.00253984 -0.00355214 2.80285e-10 2.15743e-10 1.89877e-09 2.50276e-13 2.02061e-12
2115 1 0.000635 -0.0163193 -0.00317471 -0.00375465 -1.93011e-09 3.68832e-10 -1.08966e-08 5.57252e-13 3.2823e-12
2198 1 0.000635 -0.015235 -0.00253976 -0.00394126 -2.38521e-09 2.38785e-10 -1.32579e-08 1.25213e-12 3.92325e-12
2281 1 0.000635 -0.0141513 -0.00317468 -0.00413013 -8.54973e-10 1.49848e-10 -4.95517e-09 6.02224e-12 7.12007e-12
2366 1 0.000635 -0.0130639 -0.0025399 -0.00429869 5.64811e-10 6.77319e-11 4.44122e-09 5.50169e-11 4.61031e-12
2450 1 0.000635 -0.0119714 -0.003175 -0.004428 -3.15406e-05 -4.98051e-07 7.39867e-06 5.38337e-11 3.09439e-12
2535 1 0.000635 -0.0108715 -0.00254 -0.004428 -3.05175e-08 -3.16817e-09 -2.26263e-06 4.8534e-11 6.33506e-35
2620 1 0.000635 -0.00977167 -0.003175 -0.004428 -1.3427e-16 4.1748e-17 2.16e-11 5.26426e-25 5.81792e-35
2706 1 0.000635 -0.00867182 -0.00254 -0.004428 -7.2301e-17 -5.97417e-18 2.16e-11 0 1.61609e-35
2791 1 0.000635 -0.00757197 -0.003175 -0.004428 1.44602e-16 4.77053e-17 2.16e-11 5.26426e-25 3.55539e-35
2877 1 0.000635 -0.00647211 -0.00254 -0.004428 -1.44605e-16 -1.19365e-17 2.16e-11 0 3.23218e-35
2962 1 0.000635 -0.00537226 -0.003175 -0.004428 1.44604e-16 4.7707e-17 2.16e-11 0 3.55539e-35
3049 1 0.000635 -0.00427241 -0.00254 -0.004428 -1.03284e-16 -1.19373e-17 2.16e-11 5.26426e-25 1.93931e-35
3135 1 0.000635 -0.00317256 -0.003175 -0.004428 3.09963e-17 4.17472e-17 2.16e-11 1.05285e-24 6.46435e-36
3222 1 0.000635 -0.0020727 -0.00254 -0.004428 0 -1.43996e-20 2.16e-11 0 0
3308 1 0.000635 -0.000972852 -0.003175 -0.004428 0 3.57823e-17 2.16e-11 1.05285e-24 3.23218e-36
3395 1 0.000635 0.000127 -0.00254 -0.004428 0 -1.35525e-20 2.16e-11 0 0
3481 1 0.000635 0.00122685 -0.003175 -0.004428 0 3.57823e-17 2.16e-11 1.05285e-24 3.23218e-36
3568 1 0.000635 0.0023267 -0.00254 -0.004428 -6.77626e-21 -1.35525e-20 2.16e-11 0 0
3654 1 0.000635 0.00342656 -0.003175 -0.004428 3.09777e-17 4.17463e-17 2.16e-11 1.05285e-24 6.46435e-36
3741 1 0.000635 0.00452641 -0.00254 -0.004428 4.13115e-17 -1.19382e-17 2.16e-11 5.26426e-25 1.93931e-35
3827 1 0.000635 0.00562626 -0.003175 -0.004428 -1.44595e-16 4.77053e-17 2.16e-11 5.26426e-25 3.55539e-35
3913 1 0.000635 0.00672611 -0.00254 -0.004428 7.23095e-17 -5.97502e-18 2.16e-11 0 1.61609e-35
3998 1 0.000635 0.00782597 -0.003175 -0.004428 0 3.57823e-17 2.16e-11 1.05285e-24 3.23218e-36
4084 1 0.000635 0.00892582 -0.00254 -0.004428 -8.47033e-21 -1.27055e-20 2.16e-11 0 0
4169 1 0.000635 0.0100257 -0.003175 -0.004428 1.3427e-16 4.1748e-17 2.16e-11 5.26426e-25 5.81792e-35
4255 1 0.000635 0.0111255 -0.00254 -0.004428 7.57378e-09 -1.18439e-08 -1.3374e-06 1.72146e-11 6.33506e-35