ITEM: TIMESTEP
100000
ITEM: NUMBER OF ATOMS
6793
ITEM: BOX BOUNDS ff ff ff
-8.9999999999999997e-02 8.9999999999999997e-02
-8.9999999999999997e-02 8.9999999999999997e-02
-4.0000000000000001e-02 4.0000000000000001e-02
ITEM: ATOMS id type radius x y z fx fy fz c_bendingE c_stretchingE
3368 1 0.000635 0.00015669 -0.0368005 -4.82336e-06 -3.09196e-10 -2.02673e-10 1.43138e-09 3.00462e-12 3.97464e-13
3023 1 0.000635 -0.00424384 -0.0355364 -3.2295e-05 -1.06387e-10 2.55301e-11 4.63977e-09 8.45151e-13 4.8437e-13
3109 1 0.000635 -0.00314338 -0.0361701 -1.96322e-05 -2.33798e-10 -2.97145e-10 -8.57737e-10 5.46604e-13 6.41615e-13
3196 1 0.000635 -0.00204464 -0.0355351 -6.55683e-05 -2.43418e-10 -1.92819e-10 1.04004e-09 1.17525e-12 6.0659e-13
3282 1 0.000635 -0.000943962 -0.0361675 -2.89289e-05 -2.62965e-10 1.54239e-10 7.83174e-09 3.33711e-12 4.69332e-13
3369 1 0.000635 0.000154846 -0.0355322 -6.90888e-05 -2.92542e-10 -2.54453e-10 3.65454e-10 3.60306e-12 4.53274e-13
3455 1 0.000635 0.00125543 -0.036164 -2.11037e-05 -3.10547e-10 -2.50778e-10 6.63873e-10 3.93892e-12 3.03584e-13
3542 1 0.000635 0.00235347 -0.0355262 -1.02299e-05 -2.556e-10 -3.38358e-10 -1.44351e-09 4.75795e-12 3.21335e-13
2852 1 0.000635 -0.00644469 -0.034269 -5.41037e-05 -1.4778e-10 -1.71203e-10 -3.37228e-10 3.86872e-13 3.29706e-13
2937 1 0.000635 -0.00534436 -0.034903 -4.76171e-05 -1.91754e-10 -2.53952e-10 -9.65946e-10 4.53351e-13 4.02803e-13
3024 1 0.000635 -0.00424589 -0.0342689 -0.000110954 -2.59074e-10 -3.81549e-10 -2.61419e-09 8.37075e-13 2.77095e-13
3110 1 0.000635 -0.0031453 -0.0349022 -9.20017e-05 -2.54896e-10 -3.16415e-10 -1.3042e-09 9.36614e-13 4.13477e-13
3197 1 0.000635 -0.0020466 -0.0342676 -0.000144774 -2.27876e-10 -3.90936e-11 3.2794e-09 1.40325e-12 2.85258e-13
3283 1 0.000635 -0.000945855 -0.0348999 -0.000108615 -2.61096e-10 -2.87297e-10 -6.82616e-11 2.74493e-12 4.65757e-13
3370 1 0.000635 0.00015297 -0.0342642 -0.000140121 -2.67887e-10 -3.34457e-10 -1.36162e-09 3.57712e-12 4.04535e-13
3456 1 0.000635 0.00125351 -0.0348955 -8.33366e-05 -2.86456e-10 -3.12898e-10 -7.95189e-10 4.9812e-12 4.1136e-13
3543 1 0.000635 0.00235122 -0.0342573 -6.49888e-05 -2.99844e-10 -2.99287e-10 -9.7708e-10 4.96001e-12 4.77513e-13
3629 1 0.000635 0.00345004 -0.034887 3.07428e-05 -3.97836e-10 -2.34685e-10 5.09908e-10 4.01296e-12 3.80577e-13
2767 1 0.000635 -0.00754475 -0.0336346 -5.14748e-05 -1.43879e-10 -1.48437e-10 -7.61089e-10 2.7108e-13 3.0137e-13
2938 1 0.000635 -0.00534638 -0.0336352 -0.000123527 -1.95926e-10 -2.57731e-10 -1.29091e-09 4.76151e-13 2.00733e-13
3111 1 0.000635 -0.00314734 -0.0336347 -0.000172268 -2.25627e-10 -1.7765e-10 6.16258e-10 9.99106e-13 1.47609e-13
3284 1 0.000635 -0.000947777 -0.0336324 -0.000187146 -2.67161e-10 -2.51753e-10 -7.44697e-11 2.50922e-12 3.19211e-13
3457 1 0.000635 0.00125141 -0.033627 -0.000144015 -2.63654e-10 -3.37324e-10 -1.7142e-09 4.79758e-12 5.44903e-13
3630 1 0.000635 0.00344728 -0.0336178 -1.64025e-05 -5.06389e-10 -1.71183e-10 1.93332e-09 3.69598e-12 4.5121e-13
2597 1 0.000635 -0.00974428 -0.0323649 -2.94106e-05 -1.30539e-11 5.05255e-11 1.61632e-09 4.16113e-13 3.44675e-13
2682 1 0.000635 -0.00864458 -0.0329998 -4.19877e-05 -6.39883e-11 -3.21287e-11 6.60992e-10 2.42108e-13 3.08149e-13
2768 1 0.000635 -0.00754658 -0.0323664 -0.000119921 1.07667e-10 2.30824e-10 5.92047e-09 2.63642e-13 1.97459e-13
2853 1 0.000635 -0.00644663 -0.0330011 -0.000126496 -1.5042e-11 6.88097e-11 3.59049e-09 3.90155e-13 1.81527e-13
2939 1 0.000635 -0.00534844 -0.0323676 -0.000200114 -2.06046e-10 -2.23785e-10 -1.21123e-09 6.08242e-13 6.23124e-14
3025 1 0.000635 -0.00424799 -0.0330014 -0.000191098 -2.66766e-10 -3.47111e-10 -2.57848e-09 7.35785e-13 8.19548e-14
3112 1 0.000635 -0.00314941 -0.0323672 -0.000252093 -2.07617e-10 -9.67166e-11 1.65276e-09 1.40168e-12 1.48729e-13
3198 1 0.000635 -0.00204861 -0.0330001 -0.000224577 -2.45992e-10 -1.93258e-10 5.37087e-10 1.88441e-12 2.372e-13
3285 1 0.000635 -0.000949755 -0.0323645 -0.000260375 -2.68734e-10 -1.96259e-10 3.38831e-10 3.20815e-12 4.5415e-13
3371 1 0.000635 0.000150986 -0.032996 -0.000208365 -3.08888e-10 -2.20831e-10 3.29421e-10 3.97489e-12 5.13124e-13
3458 1 0.000635 0.00124911 -0.0323583 -0.00020114 -3.94053e-10 -1.61521e-10 1.53763e-09 4.5022e-12 6.21016e-13
3544 1 0.000635 0.00234868 -0.0329883 -0.000116294 -3.6356e-10 -2.42907e-10 1.14021e-10 4.45697e-12 5.58253e-13
3631 1 0.000635 0.00344421 -0.0323485 -6.00328e-05 -5.9782e-10 -1.24226e-10 3.069e-09 3.18762e-12 4.38027e-13
3717 1 0.000635 0.00454145 -0.0329774 5.7046e-05 -4.36591e-10 -1.76389e-10 1.00503e-09 2.28404e-12 3.24119e-13
1766 1 0.000635 -0.0207419 -0.0311051 -1.329e-05 7.74638e-11 3.34102e-10 3.57071e-09 1.03605e-12 1.95774e-13
1928 1 0.000635 -0.0185423 -0.0311027 -1.19504e-05 6.32343e-11 1.27419e-10 -1.40316e-09 3.48626e-13 2.71496e-13
2093 1 0.000635 -0.0163428 -0.0310994 9.45989e-06 3.25634e-11 7.9886e-11 -1.76595e-09 2.4507e-13 3.34185e-13
2259 1 0.000635 -0.0141433 -0.0310966 1.88829e-05 -9.17436e-12 1.86945e-10 1.90193e-09 1.0163e-12 4.57343e-13
2428 1 0.000635 -0.011944 -0.0310954 -1.34079e-05 -1.15223e-10 -5.68711e-11 -2.51547e-09 1.16193e-12 4.63257e-13
2512 1 0.000635 -0.010844 -0.03173 -1.83485e-05 -8.89872e-11 -2.95226e-11 -1.03405e-09 7.82532e-13 4.04313e-13
2598 1 0.000635 -0.00974581 -0.0310963 -9.03266e-05 -1.86773e-11 7.70554e-11 1.67004e-09 4.30536e-13 3.03129e-13
2683 1 0.000635 -0.00864625 -0.0317314 -0.000106457 3.25181e-11 1.30528e-10 3.44758e-09 2.27849e-13 2.38844e-13
2769 1 0.000635 -0.00754839 -0.0310982 -0.000187978 -1.26731e-10 -5.48797e-11 2.97526e-10 2.49026e-13 1.17075e-13
2854 1 0.000635 -0.00644859 -0.0317331 -0.000198747 -8.88973e-11 -2.26464e-11 1.66393e-09 4.30258e-13 7.60061e-14
2940 1 0.000635 -0.00535048 -0.0310998 -0.000275002 -2.07058e-10 -1.87157e-10 -9.65902e-10 7.8475e-13 6.6774e-14
3026 1 0.000635 -0.00425008 -0.0317338 -0.000269137 -2.17265e-10 -1.88762e-10 -3.91883e-10 1.0709e-12 9.31061e-14
3113 1 0.000635 -0.00315148 -0.0310995 -0.000328655 -2.48928e-10 -2.15829e-10 -6.60578e-10 1.9148e-12 3.03234e-13
3199 1 0.000635 -0.00205063 -0.0317324 -0.000300447 -2.51737e-10 -1.89336e-10 2.01658e-10 2.5001e-12 3.85691e-13
3286 1 0.000635 -0.0009518 -0.0310964 -0.000328911 -2.88848e-10 -5.7095e-11 2.4685e-09 3.65959e-12 5.93183e-13
3372 1 0.000635 0.000148863 -0.0317276 -0.0002718 -2.78938e-10 -2.07695e-10 -3.24767e-11 4.17675e-12 6.22462e-13
3459 1 0.000635 0.00124662 -0.0310894 -0.000254723 -2.50202e-10 -2.35409e-10 -9.34028e-10 4.23684e-12 6.22465e-13
3545 1 0.000635 0.00234589 -0.0317192 -0.000164195 -4.56972e-10 -1.48575e-10 1.85662e-09 3.88657e-12 5.41415e-13
3632 1 0.000635 0.00344087 -0.0310791 -0.000100555 -4.85633e-10 -1.45721e-10 1.7552e-09 2.69134e-12 3.71444e-13
3718 1 0.000635 0.00453786 -0.0317079 1.94087e-05 -5.20993e-10 -1.39458e-10 1.88759e-09 1.8924e-12 2.68626e-13
1687 1 0.000635 -0.0218422 -0.0304711 -1.737e-05 6.70833e-11 3.06297e-10 2.54815e-09 1.05522e-12 2.12069e-13
1767 1 0.000635 -0.0207431 -0.0298357 -5.24076e-05 6.03667e-11 3.21231e-10 3.24123e-09 1.2875e-12 3.04868e-13
1847 1 0.000635 -0.0196427 -0.0304694 -3.77419e-05 5.59484e-11 3.30009e-10 3.70171e-09 9.7032e-13 2.90413e-13
1929 1 0.000635 -0.0185436 -0.0298336 -6.08503e-05 2.62611e-11 2.24864e-10 9.65857e-10 6.38483e-13 3.01793e-13
2011 1 0.000635 -0.0174432 -0.0304666 -2.76903e-05 4.19182e-11 8.29158e-11 -2.1588e-09 2.19173e-13 3.07645e-13
2094 1 0.000635 -0.0163441 -0.0298304 -4.26472e-05 1.98159e-11 5.09327e-11 -2.57017e-09 2.65653e-13 3.49637e-13
2176 1 0.000635 -0.0152437 -0.0304633 -8.18744e-06 4.14154e-12 6.30397e-11 -1.7457e-09 6.03574e-13 4.03706e-13
2260 1 0.000635 -0.0141446 -0.0298276 -3.43305e-05 -2.88084e-11 6.64982e-11 -1.23959e-09 1.09112e-12 4.57652e-13
2344 1 0.000635 -0.0130442 -0.0304613 -1.81792e-05 -2.76852e-11 1.20651e-10 7.63157e-10 1.31169e-12 4.86221e-13
2429 1 0.000635 -0.0119454 -0.0298266 -6.94912e-05 -6.25992e-11 5.83195e-11 -2.02379e-10 1.25988e-12 4.45463e-13
2513 1 0.000635 -0.0108455 -0.0304613 -7.64307e-05 -8.86603e-11 6.89507e-12 -6.12104e-10 8.44945e-13 3.81037e-13
2599 1 0.000635 -0.00974733 -0.0298277 -0.000151446 -7.8182e-11 3.34142e-11 4.13781e-10 4.46685e-13 2.64326e-13
2684 1 0.000635 -0.00864791 -0.030463 -0.000170758 -5.99739e-11 3.44609e-11 1.23929e-09 2.12952e-13 1.81385e-13
2770 1 0.000635 -0.00755019 -0.02983 -0.000255432 1.29811e-11 1.22092e-10 3.30351e-09 2.46347e-13 1.04047e-13
2855 1 0.000635 -0.00645053 -0.0304651 -0.000269898 -8.65397e-11 -3.30101e-13 1.73766e-09 4.87212e-13 6.9291e-14
2941 1 0.000635 -0.00535252 -0.0298318 -0.000348171 -1.44016e-10 -4.85524e-11 1.12251e-09 9.83133e-13 1.82253e-13
3027 1 0.000635 -0.00425216 -0.030466 -0.000344621 -2.41192e-10 -2.23724e-10 -1.39832e-09 1.42998e-12 2.34948e-13
3114 1 0.000635 -0.00315354 -0.0298317 -0.000402376 -2.34276e-10 -1.80213e-10 -4.28722e-10 2.45962e-12 4.99953e-13
3200 1 0.000635 -0.00205267 -0.0304644 -0.000372525 -2.58272e-10 -4.11707e-11 2.4987e-09 3.06639e-12 5.50141e-13
3287 1 0.000635 -0.000953901 -0.0298281 -0.000394125 -2.66383e-10 -1.13807e-10 1.1002e-09 4.11394e-12 6.90508e-13
3373 1 0.000635 0.00014662 -0.0304591 -0.000331489 -2.04674e-10 -2.30639e-10 -1.27069e-09 4.30018e-12 6.67252e-13
3460 1 0.000635 0.00124398 -0.0298205 -0.000305393 -1.7256e-10 -2.46436e-10 -1.79887e-09 4.06552e-12 5.93168e-13
3546 1 0.000635 0.00234288 -0.03045 -0.000209129 -2.59195e-10 -2.23117e-10 -8.32066e-10 3.44238e-12 4.81124e-13
3633 1 0.000635 0.00343729 -0.0298097 -0.000138238 -1.99492e-10 -2.30244e-10 -1.54099e-09 2.24919e-12 2.87016e-13
3719 1 0.000635 0.004534 -0.0304384 -1.54058e-05 -4.42444e-10 -1.49629e-10 9.8581e-10 1.51054e-12 1.92205e-13
1610 1 0.000635 -0.0229429 -0.0285667 -2.49616e-05 -8.52755e-12 2.49675e-10 5.87044e-10 8.87951e-13 2.63949e-13
1688 1 0.000635 -0.0218433 -0.0292015 -4.75526e-05 7.81239e-11 3.23114e-10 3.55614e-09 1.20731e-12 3.02696e-13
1768 1 0.000635 -0.0207444 -0.0285663 -8.98672e-05 3.14027e-12 2.6458e-10 1.32624e-09 1.50374e-12 3.3315e-13
1848 1 0.000635 -0.019644 -0.0292002 -8.36874e-05 2.68147e-11 2.95661e-10 2.744e-09 1.28622e-12 3.10609e-13
1930 1 0.000635 -0.0185449 -0.0285645 -0.000109559 4.03708e-12 3.33083e-10 3.85706e-09 9.15038e-13 3.06311e-13
2012 1 0.000635 -0.0174445 -0.0291976 -7.89192e-05 2.3002e-12 2.0281e-10 7.94994e-10 3.62538e-13 3.17131e-13
2095 1 0.000635 -0.0163454 -0.0285614 -9.50229e-05 6.842e-13 2.98521e-11 -3.14454e-09 2.98892e-13 3.43103e-13
2177 1 0.000635 -0.015245 -0.0291944 -6.11488e-05 -1.34678e-11 1.7773e-11 -2.99463e-09 6.22983e-13 3.97708e-13
2261 1 0.000635 -0.0141459 -0.0285587 -8.84322e-05 -3.82885e-11 6.80795e-11 -1.5043e-09 1.13544e-12 4.30995e-13
2345 1 0.000635 -0.0130455 -0.0291924 -7.29976e-05 -5.84985e-11 5.38622e-11 -1.15794e-09 1.40205e-12 4.64661e-13
2430 1 0.000635 -0.0119467 -0.0285578 -0.000126378 -8.21989e-11 4.52134e-11 -8.58755e-10 1.33318e-12 4.13477e-13
2514 1 0.000635 -0.0108469 -0.0291926 -0.000135082 -8.93269e-11 3.14624e-11 -3.45703e-10 8.99543e-13 3.51093e-13
2600 1 0.000635 -0.00974887 -0.0285591 -0.000212754 -1.29765e-10 -7.29534e-12 -7.61592e-10 4.65084e-13 2.502e-13
2685 1 0.000635 -0.00864957 -0.0291946 -0.000234859 -6.53301e-12 1.03062e-10 2.29288e-09 2.06635e-13 1.67842e-13
2771 1 0.000635 -0.00755201 -0.0285617 -0.000322329 -8.82933e-11 2.80932e-11 1.17882e-09 2.55286e-13 1.61617e-13
2856 1 0.000635 -0.00645247 -0.029197 -0.000340015 -1.02657e-10 6.01581e-12 1.44775e-09 5.62229e-13 1.54338e-13
2942 1 0.000635 -0.00535456 -0.0285638 -0.000420048 -3.85142e-11 1.24366e-10 3.77249e-09 1.22112e-12 3.76209e-13
3028 1 0.000635 -0.00425423 -0.0291981 -0.000418171 -1.25047e-10 4.1642e-11 2.86928e-09 1.84293e-12 4.43438e-13
3115 1 0.000635 -0.00315561 -0.0285637 -0.000474144 -2.04081e-10 -9.16123e-11 6.34079e-10 3.11018e-12 7.23523e-13
3201 1 0.000635 -0.00205472 -0.0291963 -0.000441931 -2.45055e-10 -1.53499e-10 1.30831e-10 3.71006e-12 7.09895e-13
3288 1 0.000635 -0.000956044 -0.0285596 -0.000456964 -2.75778e-10 -1.26838e-10 6.62142e-10 4.68112e-12 7.93546e-13
3374 1 0.000635 0.000144281 -0.0291904 -0.000388436 -2.95173e-10 -1.04129e-10 1.11884e-09 4.50294e-12 6.95916e-13
3461 1 0.000635 0.00124118 -0.0285514 -0.000353338 -1.16626e-10 -2.35073e-10 -2.13927e-09 3.96285e-12 5.62141e-13
3547 1 0.000635 0.00233967 -0.0291807 -0.000251278 -1.03279e-10 -2.62615e-10 -2.57516e-09 3.08375e-12 4.08647e-13
3634 1 0.000635 0.00343346 -0.0285402 -0.000173039 -3.29679e-10 -1.74056e-10 5.92992e-11 1.81362e-12 1.99997e-13
3720 1 0.000635 0.0045299 -0.0291688 -4.7548e-05 -5.84589e-10 -1.09452e-10 2.39396e-09 1.13531e-12 1.16317e-13
3807 1 0.000635 0.00562115 -0.0285275 5.61483e-05 -2.29633e-10 -1.64878e-10 -8.41549e-10 4.19416e-13 2.97189e-14
1689 1 0.000635 -0.0218443 -0.0279318 -7.60649e-05 -5.21729e-11 2.29706e-10 -4.43654e-10 1.23111e-12 3.12239e-13
1849 1 0.000635 -0.0196454 -0.027931 -0.000127223 1.31074e-11 2.94236e-10 2.66116e-09 1.45633e-12 3.15232e-13
2013 1 0.000635 -0.0174458 -0.0279285 -0.000129508 -1.85632e-11 2.05969e-10 7.44972e-10 4.70992e-13 3.12551e-13
2178 1 0.000635 -0.0152463 -0.0279254 -0.000114567 -2.49178e-11 -4.53971e-11 -4.63227e-09 6.29127e-13 3.71763e-13
2346 1 0.000635 -0.0130469 -0.0279235 -0.0001287 -5.4555e-11 9.61343e-11 -5.52005e-10 1.45705e-12 4.25995e-13
2515 1 0.000635 -0.0108483 -0.0279239 -0.000194253 -1.49365e-10 -2.30832e-11 -1.84524e-09 9.41562e-13 3.30255e-13
2686 1 0.000635 -0.00865125 -0.0279262 -0.000298808 -1.12624e-10 1.2105e-11 8.73466e-11 2.05386e-13 2.03633e-13
2857 1 0.000635 -0.00645442 -0.0279288 -0.000409313 -2.54809e-11 1.14815e-10 3.06504e-09 6.54382e-13 3.13077e-13
3029 1 0.000635 -0.00425631 -0.0279301 -0.000490288 -2.10572e-10 -1.57377e-10 -1.01856e-09 2.34324e-12 7.06914e-13
3202 1 0.000635 -0.00205679 -0.0279281 -0.00050946 -2.34471e-10 -1.01943e-10 6.11125e-10 4.50698e-12 8.96498e-13
3375 1 0.000635 0.000141843 -0.0279216 -0.00044286 -4.38012e-10 6.70739e-12 3.6911e-09 4.78265e-12 7.38571e-13
3548 1 0.000635 0.00233623 -0.0279114 -0.000290378 -2.77705e-10 -1.60367e-10 -3.52241e-11 2.70769e-12 3.32321e-13
3721 1 0.000635 0.00452555 -0.0278992 -7.71045e-05 -4.13295e-10 -1.34481e-10 9.70871e-10 7.67993e-13 6.14062e-14
1534 1 0.000635 -0.0240429 -0.0266619 -1.0925e-05 -1.07149e-10 1.80201e-10 -1.39124e-09 2.68137e-12 4.06284e-13
1611 1 0.000635 -0.0229437 -0.0272969 -4.6467e-05 -9.49325e-11 2.04946e-10 -1.19812e-09 1.74672e-12 1.9505e-13
1690 1 0.000635 -0.0218454 -0.0266622 -0.00010718 2.2063e-11 2.88171e-10 2.10519e-09 1.05093e-12 3.40118e-13
1769 1 0.000635 -0.0207456 -0.0272969 -0.000126254 4.05463e-11 3.13793e-10 3.04244e-09 1.37764e-12 3.42382e-13
1850 1 0.000635 -0.0196467 -0.0266617 -0.000169273 -2.44751e-11 2.29617e-10 7.31493e-10 1.35716e-12 3.06511e-13
1931 1 0.000635 -0.0185463 -0.0272954 -0.000156642 -1.41347e-11 2.72857e-10 2.27303e-09 1.02417e-12 3.0105e-13
2014 1 0.000635 -0.0174472 -0.0266595 -0.000178975 -3.64648e-11 2.46917e-10 1.76315e-09 5.06889e-13 2.94604e-13
2096 1 0.000635 -0.0163468 -0.0272925 -0.000147096 -2.5765e-11 1.33236e-10 -8.34725e-10 3.17975e-13 3.22753e-13
2179 1 0.000635 -0.0152477 -0.0266565 -0.000168145 -5.08011e-11 1.72814e-10 5.01971e-10 6.17075e-13 3.34968e-13
2262 1 0.000635 -0.0141473 -0.0272898 -0.0001432 -5.48086e-11 5.82182e-11 -1.90682e-09 1.14676e-12 3.89793e-13
2347 1 0.000635 -0.0130483 -0.0266547 -0.000185126 -5.15923e-11 1.18329e-10 -2.16065e-10 1.47157e-12 3.82623e-13
2431 1 0.000635 -0.0119481 -0.027289 -0.000184002 -5.81496e-11 1.07284e-10 1.63302e-10 1.37631e-12 3.80408e-13
2516 1 0.000635 -0.0108498 -0.0266552 -0.000253918 -1.60953e-10 -1.73854e-11 -2.00291e-09 9.64764e-13 3.24245e-13
2601 1 0.000635 -0.00975044 -0.0272906 -0.000274279 -1.56105e-10 -2.17291e-11 -1.38668e-09 4.79102e-13 2.6598e-13
2687 1 0.000635 -0.00865294 -0.0266577 -0.000362637 8.02002e-12 1.45438e-10 2.30668e-09 2.05044e-13 2.81081e-13
2772 1 0.000635 -0.00755383 -0.0272934 -0.000388778 -1.40935e-11 1.18047e-10 2.52011e-09 2.71304e-13 2.78641e-13
2858 1 0.000635 -0.00645637 -0.0266606 -0.000477813 -1.68472e-10 -5.13368e-11 -2.81359e-10 7.63092e-13 5.33789e-13
2943 1 0.000635 -0.0053566 -0.0272957 -0.000490866 -1.47382e-10 -4.47387e-11 5.2877e-10 1.50419e-12 6.36634e-13
3030 1 0.000635 -0.00425837 -0.026662 -0.000561247 -1.86427e-10 -9.49626e-11 -1.70347e-10 2.94849e-12 1.03827e-12
3116 1 0.000635 -0.00315767 -0.0272955 -0.000544457 -2.11592e-10 -1.50488e-10 -7.2686e-10 3.91579e-12 9.96076e-13
3203 1 0.000635 -0.00205885 -0.0266598 -0.00057532 -2.22064e-10 -1.08264e-10 1.7616e-10 5.50037e-12 1.1268e-12
3289 1 0.000635 -0.000958229 -0.0272911 -0.000517674 -2.39251e-10 -1.25017e-10 1.42106e-10 5.37734e-12 9.27295e-13
3376 1 0.000635 0.00013928 -0.0266527 -0.000494406 -1.76922e-10 -1.76145e-10 -1.21446e-09 5.04565e-12 8.00209e-13
3462 1 0.000635 0.00123818 -0.0272822 -0.000398199 -3.84233e-10 -6.62484e-11 1.88823e-09 3.81364e-12 5.33641e-13
3549 1 0.000635 0.00233251 -0.0266419 -0.00032593 -2.95585e-10 -1.14104e-10 5.57488e-10 2.22158e-12 2.66385e-13
3635 1 0.000635 0.00342935 -0.0272706 -0.000204726 -2.30232e-10 -1.68484e-10 -5.40129e-10 1.34176e-12 1.28105e-13
3722 1 0.000635 0.00452102 -0.0266295 -0.000104575 -2.54045e-10 -1.51871e-10 -2.62959e-10 4.64627e-13 5.45395e-14
3808 1 0.000635 0.00561661 -0.0272579 2.84974e-05 -1.03219e-10 -1.80839e-10 -1.82117e-09 2.76061e-13 4.18124e-14
1535 1 0.000635 -0.0240444 -0.0253926 -5.41657e-05 -9.64962e-11 1.86179e-10 -6.36632e-10 1.54279e-12 6.09108e-13
1612 1 0.000635 -0.0229448 -0.0260273 -7.83853e-05 -5.90841e-11 2.29161e-10 2.56135e-10 1.63053e-12 4.82899e-13
1691 1 0.000635 -0.0218467 -0.0253929 -0.000145832 2.86398e-11 2.87892e-10 2.47791e-09 7.23754e-13 4.41531e-13
1770 1 0.000635 -0.0207469 -0.0260275 -0.000164403 -1.95422e-11 2.43075e-10 1.02795e-09 1.1415e-12 3.36549e-13
1851 1 0.000635 -0.0196481 -0.0253924 -0.000211675 -5.19681e-11 1.88489e-10 -3.62733e-10 1.21111e-12 2.77695e-13
1932 1 0.000635 -0.0185477 -0.0260262 -0.000202407 -2.99684e-11 2.42502e-10 1.39626e-09 9.82046e-13 2.78474e-13
2015 1 0.000635 -0.0174487 -0.0253904 -0.000227494 -4.42041e-11 1.14229e-10 -1.63417e-09 4.81259e-13 2.61883e-13
2097 1 0.000635 -0.0163482 -0.0260235 -0.000198591 -3.71887e-11 3.99189e-11 -3.07204e-09 3.11924e-13 2.9087e-13
2180 1 0.000635 -0.0152491 -0.0253876 -0.000221682 -6.74425e-11 9.86015e-11 -1.3097e-09 5.88688e-13 2.92503e-13
2263 1 0.000635 -0.0141486 -0.0260209 -0.000198424 -7.36352e-11 6.47081e-11 -1.8357e-09 1.12675e-12 3.4392e-13
2348 1 0.000635 -0.0130497 -0.0253859 -0.000242121 -9.12809e-11 3.07822e-11 -2.22815e-09 1.44714e-12 3.43314e-13
2432 1 0.000635 -0.0119496 -0.0260203 -0.000242241 -6.10273e-11 9.82353e-11 -2.61529e-10 1.38548e-12 3.53992e-13
2517 1 0.000635 -0.0108514 -0.0253865 -0.000313959 4.44939e-11 2.16351e-10 2.60486e-09 9.68043e-13 3.33013e-13
2602 1 0.000635 -0.00975203 -0.026022 -0.000335961 -8.89742e-11 6.84392e-11 9.09452e-11 4.84751e-13 3.07064e-13
2688 1 0.000635 -0.00865465 -0.0253892 -0.000426159 -7.25023e-12 1.4128e-10 1.96264e-09 2.03493e-13 3.89354e-13
2773 1 0.000635 -0.00755565 -0.026025 -0.000454673 -6.26841e-11 7.26656e-11 1.38352e-09 2.92345e-13 4.43206e-13
2859 1 0.000635 -0.0064583 -0.0253923 -0.000545354 -2.48877e-11 1.06176e-10 2.43226e-09 8.7987e-13 8.12686e-13
2944 1 0.000635 -0.00535863 -0.0260275 -0.000560635 -1.33368e-10 -1.66138e-11 8.19864e-10 1.83208e-12 9.68956e-13
3031 1 0.000635 -0.00426042 -0.0253938 -0.000630909 -1.96712e-10 -8.82539e-11 -3.65704e-10 3.6709e-12 1.45528e-12
3117 1 0.000635 -0.00315971 -0.0260273 -0.000613433 -2.00875e-10 -7.25789e-11 3.95952e-10 4.92034e-12 1.33323e-12
3204 1 0.000635 -0.00206091 -0.0253914 -0.000639391 -2.12497e-10 -1.00856e-10 3.90247e-11 6.71259e-12 1.3923e-12
3290 1 0.000635 -0.000960465 -0.0260225 -0.000576057 -2.14457e-10 -1.38062e-10 -3.71107e-10 6.17307e-12 1.0892e-12
3377 1 0.000635 0.000136557 -0.0253837 -0.000542634 -3.22745e-10 -6.19813e-11 1.4912e-09 5.15522e-12 8.93452e-13
3463 1 0.000635 0.00123495 -0.026013 -0.000439368 -3.27778e-10 -9.24655e-11 1.07153e-09 3.49004e-12 5.2296e-13
3550 1 0.000635 0.00232848 -0.0253724 -0.000357864 -3.2127e-10 -9.5354e-11 9.97302e-10 1.62276e-12 2.54437e-13
3636 1 0.000635 0.00342498 -0.026001 -0.000233491 -1.80953e-10 -1.53531e-10 -6.88691e-10 8.67409e-13 1.06789e-13
3723 1 0.000635 0.00451646 -0.0253598 -0.00013139 -8.56174e-11 -1.62755e-10 -1.57697e-09 3.94214e-13 1.04276e-13
3809 1 0.000635 0.00561214 -0.0259882 5.83696e-07 -1.66675e-10 -1.53097e-10 -1.05679e-09 3.54112e-13 9.61898e-14
1384 1 0.000635 -0.0262441 -0.0241235 -2.13555e-05 -1.40033e-10 1.06721e-10 -1.45833e-09 4.42182e-13 4.38541e-13
1459 1 0.000635 -0.0251442 -0.024758 -3.75676e-05 -1.02371e-10 1.59957e-10 -7.36502e-10 6.55208e-13 4.71723e-13
1536 1 0.000635 -0.024046 -0.0241234 -0.000102309 -4.25874e-11 2.23719e-10 8.71909e-10 2.32581e-13 6.65091e-13
1613 1 0.000635 -0.0229463 -0.0247581 -0.000122404 2.97756e-12 2.71812e-10 1.89299e-09 5.53553e-13 6.04008e-13
1692 1 0.000635 -0.0218482 -0.0241236 -0.00019012 -7.18686e-11 1.89024e-10 -5.20792e-11 4.7628e-13 4.72946e-13
1771 1 0.000635 -0.0207483 -0.0247582 -0.000206029 -1.05352e-11 2.52739e-10 1.74803e-09 9.62376e-13 3.34062e-13
1852 1 0.000635 -0.0196496 -0.0241232 -0.000255255 -5.18265e-12 2.85137e-10 2.74242e-09 1.01712e-12 2.45825e-13
1933 1 0.000635 -0.0185492 -0.024757 -0.000247791 -4.88228e-11 1.59879e-10 -6.59088e-10 8.74824e-13 2.41065e-13
2016 1 0.000635 -0.0174501 -0.0241213 -0.000275651 -5.3011e-11 1.47221e-10 -6.66386e-10 4.21948e-13 2.20362e-13
2098 1 0.000635 -0.0163496 -0.0247544 -0.000249691 -6.10342e-11 1.00842e-10 -1.61976e-09 2.8815e-13 2.50846e-13
2181 1 0.000635 -0.0152506 -0.0241186 -0.000275303 -7.41013e-11 7.91381e-11 -1.79758e-09 5.43609e-13 2.52514e-13
2264 1 0.000635 -0.0141501 -0.024752 -0.000254002 -1.07758e-10 -5.97594e-11 -4.70222e-09 1.0758e-12 3.01652e-13
2349 1 0.000635 -0.0130512 -0.0241171 -0.000299604 -9.05068e-11 4.24491e-11 -2.06901e-09 1.38502e-12 3.15309e-13
2433 1 0.000635 -0.0119511 -0.0247515 -0.000300954 -6.04648e-11 9.70338e-11 -4.2131e-10 1.36219e-12 3.38542e-13
2518 1 0.000635 -0.0108529 -0.0241179 -0.000374129 -7.72003e-11 9.07389e-11 -2.17943e-10 9.49921e-13 3.54909e-13
2603 1 0.000635 -0.00975365 -0.0247534 -0.000397589 1.10862e-11 1.68421e-10 1.97722e-09 4.817e-13 3.66356e-13
2689 1 0.000635 -0.00865636 -0.0241206 -0.000489098 1.10345e-10 2.44825e-10 3.89185e-09 2.01065e-13 5.18812e-13
2774 1 0.000635 -0.00755747 -0.0247565 -0.000519746 -8.12411e-12 1.2805e-10 2.21614e-09 3.14263e-13 6.45542e-13
2860 1 0.000635 -0.0064602 -0.0241238 -0.000611469 -9.00469e-11 3.18109e-11 8.23587e-10 9.96142e-13 1.14364e-12
2945 1 0.000635 -0.00536063 -0.0247592 -0.000629002 -2.41426e-10 -1.42136e-10 -1.8729e-09 2.19045e-12 1.38034e-12
3032 1 0.000635 -0.00426242 -0.0241255 -0.000698842 -1.3824e-10 5.51048e-11 2.11928e-09 4.48611e-12 1.96462e-12
3118 1 0.000635 -0.00316173 -0.024759 -0.000680833 -2.01093e-10 -7.60473e-11 2.07479e-10 6.14199e-12 1.73593e-12
3205 1 0.000635 -0.00206296 -0.0241229 -0.000701407 -2.64499e-10 2.75205e-11 2.42081e-09 8.0805e-12 1.66129e-12
3291 1 0.000635 -0.00096276 -0.0247538 -0.000631777 -2.47976e-10 -7.50793e-11 7.54611e-10 6.9602e-12 1.27874e-12
3378 1 0.000635 0.000133643 -0.0241146 -0.000587282 -3.47134e-10 -2.85591e-11 2.14688e-09 4.97413e-12 1.08463e-12
3464 1 0.000635 0.00123142 -0.0247437 -0.000476635 -1.87236e-10 -1.14041e-10 -1.86883e-10 2.92658e-12 5.81416e-13
3551 1 0.000635 0.00232423 -0.0241029 -0.00038729 -1.50816e-10 -1.22787e-10 -5.45985e-10 1.12348e-12 3.3701e-13
3637 1 0.000635 0.00342048 -0.0247314 -0.000260614 1.52616e-10 -2.01507e-10 -3.65625e-09 5.95509e-13 1.57711e-13
3724 1 0.000635 0.00451216 -0.0240902 -0.000160534 -2.30145e-10 -1.18798e-10 1.69809e-11 8.21125e-13 1.66341e-13
3810 1 0.000635 0.00560802 -0.0247186 -3.0314e-05 -2.18915e-10 -1.21732e-10 -2.80087e-10 8.13089e-13 1.52508e-13
1309 1 0.000635 -0.0273439 -0.0234889 -3.3057e-06 -2.41068e-10 -1.32507e-11 -4.20209e-09 5.28284e-13 4.42758e-13
1385 1 0.000635 -0.0262455 -0.0228542 -6.62094e-05 -1.30459e-10 1.08e-10 -9.39962e-10 3.36766e-13 5.66652e-13
1460 1 0.000635 -0.0251457 -0.0234888 -8.42422e-05 -1.85797e-11 2.34531e-10 1.78592e-09 2.17556e-13 5.87585e-13
1537 1 0.000635 -0.0240476 -0.0228544 -0.000152216 -5.38129e-11 2.02575e-10 8.02775e-10 7.42214e-14 6.64655e-13
1614 1 0.000635 -0.0229479 -0.023489 -0.000171005 2.02157e-11 2.80606e-10 2.47344e-09 1.62472e-13 6.1875e-13
1693 1 0.000635 -0.0218497 -0.0228545 -0.000237151 -4.83653e-11 2.13206e-10 8.4084e-10 3.53968e-13 4.52204e-13
1772 1 0.000635 -0.0207497 -0.023489 -0.00025028 -9.41651e-11 1.65029e-10 -5.92643e-10 7.51847e-13 3.17679e-13
1853 1 0.000635 -0.019651 -0.0228539 -0.00029991 -6.6808e-11 2.0146e-10 6.57931e-10 8.08277e-13 2.18504e-13
1934 1 0.000635 -0.0185506 -0.0234878 -0.000293442 -1.90747e-11 3.06875e-10 3.41567e-09 7.25439e-13 2.0186e-13
2017 1 0.000635 -0.0174516 -0.0228521 -0.000323897 -5.50369e-11 1.81302e-10 1.95976e-10 3.49344e-13 1.82577e-13
2099 1 0.000635 -0.0163511 -0.0234854 -0.00030072 -6.34592e-11 1.12642e-10 -1.27506e-09 2.54444e-13 2.11618e-13
2182 1 0.000635 -0.015252 -0.0228497 -0.000329156 -6.8199e-11 1.42537e-10 -1.59588e-10 4.88e-13 2.21818e-13
2265 1 0.000635 -0.0141515 -0.0234832 -0.000309968 -8.27533e-11 5.85299e-11 -1.97398e-09 9.97034e-13 2.70835e-13
2350 1 0.000635 -0.0130527 -0.0228483 -0.000357463 -4.34538e-11 1.5797e-10 5.47765e-10 1.2927e-12 3.02643e-13
2434 1 0.000635 -0.0119526 -0.0234828 -0.000359988 -2.21419e-11 1.63582e-10 8.93864e-10 1.30679e-12 3.37052e-13
2519 1 0.000635 -0.0108545 -0.0228492 -0.000434278 -5.51304e-11 1.16333e-10 2.88537e-10 9.13844e-13 3.91322e-13
2604 1 0.000635 -0.00975528 -0.0234847 -0.000458903 -1.0352e-11 1.48559e-10 1.34605e-09 4.70111e-13 4.39439e-13
2690 1 0.000635 -0.00865805 -0.022852 -0.000551127 -1.55681e-10 -9.12822e-13 -1.24368e-09 1.97328e-13 6.6181e-13
2775 1 0.000635 -0.00755925 -0.023488 -0.000583587 1.03947e-12 1.22906e-10 1.96562e-09 3.34841e-13 8.74198e-13
2861 1 0.000635 -0.00646203 -0.0228553 -0.000675606 -2.12101e-10 -8.43424e-11 -1.81572e-09 1.09359e-12 1.5084e-12
2946 1 0.000635 -0.00536256 -0.0234908 -0.000695401 -1.19246e-10 2.66639e-11 8.7616e-10 2.54124e-12 1.86539e-12
3033 1 0.000635 -0.00426434 -0.022857 -0.000764305 -2.04758e-10 -9.97354e-11 -1.3873e-09 5.28289e-12 2.53875e-12
3119 1 0.000635 -0.0031637 -0.0234906 -0.000746231 -1.97787e-10 -1.19698e-11 1.01701e-09 7.50156e-12 2.17591e-12
3206 1 0.000635 -0.00206497 -0.0228542 -0.000761201 -2.32264e-10 1.70359e-11 2.02745e-09 9.37618e-12 1.87963e-12
3292 1 0.000635 -0.000965115 -0.023485 -0.00068471 -2.4716e-10 -3.4672e-11 1.32371e-09 7.56584e-12 1.52308e-12
3379 1 0.000635 0.000130584 -0.0228455 -0.000629244 -2.83711e-10 -3.46719e-11 1.46333e-09 4.59242e-12 1.51848e-12
3465 1 0.000635 0.00122767 -0.0234743 -0.000510963 -3.13897e-10 -4.82178e-11 1.46057e-09 2.29723e-12 7.9003e-13
3552 1 0.000635 0.00232007 -0.0228333 -0.00041758 -2.25407e-10 -7.65652e-11 3.95997e-10 1.26426e-12 4.77232e-13
3638 1 0.000635 0.00341615 -0.0234618 -0.000289331 -1.4894e-10 -1.28626e-10 -5.97178e-10 9.26045e-13 2.34965e-13
3725 1 0.000635 0.00450862 -0.0228208 -0.000196919 -2.88118e-10 -9.04562e-11 7.42792e-10 1.95275e-12 1.7449e-13
3811 1 0.000635 0.00560466 -0.0234492 -6.83925e-05 -3.31054e-10 -7.88911e-11 1.09578e-09 1.74601e-12 1.5659e-13
3897 1 0.000635 0.00669861 -0.0228088 8.94799e-06 -5.65518e-10 4.764e-11 3.69346e-09 2.5279e-12 1.02926e-13
1310 1 0.000635 -0.0273454 -0.0222197 -4.89633e-05 -1.0934e-10 1.19619e-10 1.15624e-10 3.38594e-13 5.18775e-13
1461 1 0.000635 -0.0251474 -0.0222198 -0.000133474 -6.51403e-11 1.7821e-10 7.53594e-10 5.93898e-14 6.33494e-13
1615 1 0.000635 -0.0229495 -0.0222199 -0.000220429 2.71219e-12 2.57182e-10 2.23312e-09 1.3463e-13 5.75093e-13
1773 1 0.000635 -0.0207512 -0.0222198 -0.000295888 -7.39371e-11 1.82744e-10 9.80782e-11 5.89841e-13 2.96626e-13
1935 1 0.000635 -0.0185521 -0.0222186 -0.000339552 -4.79559e-11 2.52873e-10 2.11904e-09 5.75419e-13 1.73175e-13
2100 1 0.000635 -0.0163526 -0.0222164 -0.000351958 -5.57178e-11 2.34884e-10 1.90223e-09 2.19697e-13 1.81573e-13
2266 1 0.000635 -0.0141531 -0.0222144 -0.000366252 -9.15114e-11 6.38253e-11 -1.65318e-09 9.0415e-13 2.54373e-13
2435 1 0.000635 -0.0119542 -0.0222141 -0.000419157 -1.41533e-10 1.36666e-11 -2.24548e-09 1.22997e-12 3.5279e-13
2605 1 0.000635 -0.00975692 -0.0222161 -0.000519712 -1.33019e-10 2.65596e-11 -1.20039e-09 4.49417e-13 5.26442e-13
2776 1 0.000635 -0.00756099 -0.0222193 -0.00064579 -7.12535e-11 4.78103e-11 2.25244e-10 3.54021e-13 1.11258e-12
2947 1 0.000635 -0.00536439 -0.0222221 -0.000759005 -2.43571e-10 -1.44109e-10 -2.70613e-09 2.81746e-12 2.37978e-12
3120 1 0.000635 -0.00316558 -0.022222 -0.00080906 -1.65349e-10 9.29571e-12 1.15687e-09 8.71293e-12 2.58603e-12
3293 1 0.000635 -0.000967466 -0.0222161 -0.00073573 -1.79661e-10 -6.08308e-11 4.41222e-10 7.9136e-12 1.9185e-12
3466 1 0.000635 0.00122396 -0.0222049 -0.000545754 -4.2326e-10 1.16336e-11 2.67664e-09 2.20394e-12 1.1665e-12
3639 1 0.000635 0.00341256 -0.0221924 -0.000325367 -1.19663e-10 -1.27602e-10 -7.89765e-10 2.23171e-12 2.56304e-13
3812 1 0.000635 0.00560253 -0.0221803 -0.000119199 -1.47528e-10 -1.51709e-10 -6.77502e-10 2.96819e-12 1.13021e-13
1164 1 0.000635 -0.0295448 -0.0209504 -7.85948e-06 -1.10088e-10 6.49484e-11 6.61448e-10 1.78641e-13 4.936e-13
1236 1 0.000635 -0.0284452 -0.0215851 -3.08226e-05 -1.56092e-10 5.67461e-11 -6.99281e-10 2.01506e-13 4.87742e-13
1311 1 0.000635 -0.0273468 -0.0209505 -9.39204e-05 -1.30791e-10 8.91584e-11 -2.17059e-10 1.68653e-13 5.21216e-13
1386 1 0.000635 -0.0262471 -0.0215851 -0.000114208 -8.38743e-11 1.50548e-10 6.45513e-10 1.40004e-13 5.7961e-13
1462 1 0.000635 -0.025149 -0.0209507 -0.000182204 1.29881e-11 2.49457e-10 3.00341e-09 7.97351e-14 5.85328e-13
1538 1 0.000635 -0.0240493 -0.0215853 -0.000202054 1.10164e-10 3.52916e-10 5.21256e-09 7.30676e-14 6.17048e-13
1616 1 0.000635 -0.0229511 -0.0209508 -0.000268772 9.92281e-11 3.43726e-10 4.95895e-09 1.73169e-13 5.15427e-13