ITEM: TIMESTEP
930000
ITEM: NUMBER OF ATOMS
6793
ITEM: BOX BOUNDS ff ff ff
-8.9999999999999997e-02 8.9999999999999997e-02
-8.9999999999999997e-02 8.9999999999999997e-02
-4.0000000000000001e-02 4.0000000000000001e-02
ITEM: ATOMS id type radius x y z fx fy fz c_bendingE c_stretchingE
3384 1 0.000635 9.15405e-05 -0.0163954 -0.00923802 1.15204e-10 3.48888e-11 -7.80811e-11 1.71103e-09 1.63919e-11
3385 1 0.000635 0.000122391 -0.0152156 -0.00970683 7.50109e-11 -1.61782e-10 -6.62923e-10 1.29193e-09 5.60219e-11
3471 1 0.000635 0.00120435 -0.0158071 -0.00940359 1.60814e-10 -2.79178e-10 -9.51415e-10 1.3785e-09 1.07728e-10
3558 1 0.000635 0.00229739 -0.0151616 -0.0094013 -1.57063e-10 2.98539e-10 1.09342e-09 8.94018e-11 7.18939e-11
3213 1 0.000635 -0.00207095 -0.0139552 -0.00985909 -1.46266e-11 -2.92682e-11 -1.46653e-10 2.06831e-09 2.6333e-10
3299 1 0.000635 -0.000974159 -0.0145915 -0.00983978 1.0921e-11 -3.0019e-11 -1.29093e-10 1.97253e-09 8.45856e-11
3386 1 0.000635 0.000126308 -0.0139668 -0.00994284 -1.16086e-11 6.17727e-12 8.5782e-11 1.49902e-09 2.89825e-11
3472 1 0.000635 0.00121965 -0.0145791 -0.00973454 -8.70271e-11 1.89926e-10 8.24379e-10 6.47633e-10 1.00111e-10
3559 1 0.000635 0.00231427 -0.013936 -0.0097398 -8.5516e-11 2.02779e-10 7.8102e-10 2.11937e-10 2.30037e-10
3645 1 0.000635 0.00339403 -0.0145231 -0.00941976 1.23935e-10 -2.41658e-10 -7.86921e-10 4.25709e-11 3.19915e-11
3732 1 0.000635 0.00450009 -0.0139077 -0.00951087 -2.76687e-11 2.00675e-10 5.93913e-10 5.33075e-11 3.34768e-11
3818 1 0.000635 0.00558406 -0.0145047 -0.00922317 -1.08974e-11 1.98904e-10 4.66553e-10 2.00482e-11 1.26998e-11
3904 1 0.000635 0.00669232 -0.013895 -0.00933273 2.39934e-11 -7.7627e-12 -7.6534e-11 5.48504e-11 1.85407e-11
3041 1 0.000635 -0.00426508 -0.012684 -0.00984962 -6.02442e-11 -6.48162e-11 -4.65784e-10 1.21688e-09 9.35232e-11
3127 1 0.000635 -0.00316715 -0.0133187 -0.00985341 -2.81333e-11 -3.6477e-11 -2.38222e-10 1.48199e-09 2.42952e-10
3214 1 0.000635 -0.0020727 -0.0127 -0.010044 -8.27438e-05 2.87647e-05 -2.5387e-06 1.74807e-09 5.7815e-11
3300 1 0.000635 -0.00097323 -0.013335 -0.0100214 -2.53758e-12 5.99181e-12 1.08544e-10 1.29865e-09 3.04187e-11
3387 1 0.000635 0.000127 -0.0127 -0.010044 -2.89893e-05 -5.69106e-05 2.80574e-06 1.34871e-10 1.27551e-11
3473 1 0.000635 0.00122615 -0.0133338 -0.00999031 -9.56128e-12 1.40381e-11 4.35249e-11 1.53277e-10 6.64223e-11
3560 1 0.000635 0.0023267 -0.0127 -0.010044 5.07652e-05 -0.000249059 7.61868e-05 2.3785e-10 2.10818e-10
3646 1 0.000635 0.00341544 -0.0133095 -0.00979516 4.58604e-11 -1.12226e-10 -4.30385e-10 2.16515e-10 1.47108e-10
3733 1 0.000635 0.00451937 -0.0126853 -0.00985393 -3.94176e-11 1.36958e-10 5.60709e-10 1.56399e-10 2.25251e-11
3819 1 0.000635 0.00560659 -0.013292 -0.00960021 1.03683e-10 -2.28952e-10 -1.00702e-09 4.85201e-11 1.53297e-11
3905 1 0.000635 0.00671115 -0.0126697 -0.00966817 -1.02428e-11 7.21546e-11 2.89249e-10 6.90531e-11 9.53804e-12
3990 1 0.000635 0.00779904 -0.0132802 -0.00942974 -1.20266e-11 8.39091e-11 2.40932e-10 7.05572e-10 9.25727e-11
4076 1 0.000635 0.00889783 -0.0126442 -0.00944994 5.4321e-12 1.92961e-11 2.73976e-12 1.3461e-09 1.3216e-11
2784 1 0.000635 -0.00747767 -0.0119016 -0.00926691 -2.46486e-10 -3.42346e-10 -4.32986e-10 8.82052e-10 2.81241e-11
2870 1 0.000635 -0.00646322 -0.011416 -0.00985525 -5.24387e-11 4.73915e-11 6.63071e-11 9.52908e-10 3.7802e-11
2869 1 0.000635 -0.00636882 -0.0125192 -0.00923259 1.30646e-11 1.13776e-10 6.82955e-12 9.30466e-10 6.04261e-12
2955 1 0.000635 -0.00536383 -0.0120497 -0.00985033 -1.13736e-10 -6.5022e-11 -5.29561e-10 1.05259e-09 4.23548e-11
3042 1 0.000635 -0.00427241 -0.01143 -0.010044 5.05863e-07 5.53195e-05 -1.064e-05 8.88694e-10 1.43552e-11
3128 1 0.000635 -0.00317256 -0.012065 -0.010044 -3.19705e-05 8.32295e-05 -1.3225e-05 1.14671e-09 5.37683e-11
3215 1 0.000635 -0.0020727 -0.01143 -0.010044 2.94571e-08 -7.79162e-08 -3.34588e-06 1.066e-10 5.17148e-36
3301 1 0.000635 -0.000972852 -0.012065 -0.010044 4.16756e-08 -1.28622e-05 -2.93242e-06 9.62128e-11 7.39095e-13
3388 1 0.000635 0.000127 -0.01143 -0.010044 6.09762e-09 -1.69407e-21 -8.91621e-07 1.50487e-11 5.17148e-36
3474 1 0.000635 0.00122685 -0.012065 -0.010044 -3.19999e-08 2.3571e-06 -3.33657e-06 1.57802e-10 2.93853e-14
3561 1 0.000635 0.0023267 -0.01143 -0.010044 6.864e-08 -7.0556e-08 -4.35182e-06 1.91073e-10 5.17148e-36
3647 1 0.000635 0.00342656 -0.012065 -0.010044 4.09751e-05 2.31123e-05 3.43151e-06 1.81272e-10 2.01771e-11
3734 1 0.000635 0.00452641 -0.01143 -0.010044 1.91095e-05 1.15538e-05 3.48478e-06 1.31864e-10 4.53837e-12
3820 1 0.000635 0.00562126 -0.0120552 -0.00988804 1.03286e-10 -2.12335e-10 -1.24104e-09 1.1882e-10 5.39019e-12
3906 1 0.000635 0.00672248 -0.0114235 -0.00991428 -4.40743e-11 1.5485e-10 1.04008e-09 1.04745e-10 2.73035e-12
3991 1 0.000635 0.0078151 -0.0120456 -0.00973499 8.08227e-11 -1.38327e-10 -6.64818e-10 1.04017e-09 7.65178e-11
4077 1 0.000635 0.00891456 -0.0114093 -0.00974436 3.73604e-11 -1.122e-11 -7.55259e-11 9.80625e-10 8.64937e-12
2614 1 0.000635 -0.00969369 -0.0106687 -0.00934431 1.86262e-10 5.10245e-10 8.01909e-10 9.1497e-10 1.96143e-10
2699 1 0.000635 -0.00858523 -0.0112831 -0.00930199 8.78035e-11 3.85193e-10 5.51622e-10 8.76617e-10 9.16998e-11
2785 1 0.000635 -0.00756297 -0.0107826 -0.00986286 2.03907e-12 5.29668e-11 2.14195e-10 8.91742e-10 5.80384e-11
2956 1 0.000635 -0.00537226 -0.010795 -0.010044 2.55332e-05 3.38944e-05 -8.76769e-06 7.52338e-10 6.12831e-12
3129 1 0.000635 -0.00317256 -0.010795 -0.010044 -8.06432e-09 -6.8718e-08 -3.39151e-06 1.09485e-10 6.46435e-36
3302 1 0.000635 -0.000972852 -0.010795 -0.010044 3.33406e-09 -3.38813e-21 -1.99054e-07 7.49203e-13 5.17148e-36
3475 1 0.000635 0.00122685 -0.010795 -0.010044 6.20736e-09 -3.38813e-21 -4.73524e-07 4.24034e-12 5.17148e-36
3648 1 0.000635 0.00342656 -0.010795 -0.010044 7.17808e-08 -4.55897e-08 -3.57115e-06 1.2814e-10 1.0343e-35
3821 1 0.000635 0.00562626 -0.010795 -0.010044 1.11024e-05 2.32616e-06 3.6636e-06 9.09489e-11 1.09626e-12
3992 1 0.000635 0.00782374 -0.0107916 -0.00994445 -5.0193e-12 3.65898e-11 3.59373e-10 5.2832e-10 4.59191e-11
4163 1 0.000635 0.00996689 -0.0107363 -0.00951531 -1.27089e-11 2.34833e-11 8.15908e-11 1.12174e-09 2.22095e-11
2445 1 0.000635 -0.0119167 -0.00945781 -0.00946144 7.57447e-11 1.69715e-10 3.53159e-10 1.43552e-09 2.94313e-10
2529 1 0.000635 -0.0108045 -0.0100612 -0.00939882 9.37188e-11 2.16099e-10 3.88994e-10 1.05365e-09 2.88247e-10
2615 1 0.000635 -0.00976216 -0.00951479 -0.00987276 -3.37364e-11 7.18771e-12 -1.65907e-10 9.39279e-10 1.32698e-10
2700 1 0.000635 -0.00866277 -0.010149 -0.00987031 -4.30724e-11 -1.81155e-11 -2.1074e-10 8.70355e-10 9.08957e-11
2786 1 0.000635 -0.00757197 -0.009525 -0.010044 6.48203e-05 5.10292e-06 -6.55517e-06 5.8682e-10 3.06034e-11
2871 1 0.000635 -0.00647211 -0.01016 -0.010044 4.64838e-05 1.78935e-05 -7.48522e-06 6.64227e-10 1.38888e-11
2957 1 0.000635 -0.00537226 -0.009525 -0.010044 -4.66501e-08 -4.7956e-08 -3.30741e-06 1.04213e-10 3.74932e-35
3043 1 0.000635 -0.00427241 -0.01016 -0.010044 -3.08744e-08 -5.85945e-08 -3.38101e-06 1.08827e-10 2.71503e-35
3130 1 0.000635 -0.00317256 -0.009525 -0.010044 2.0671e-17 0 2.16e-11 1.05285e-24 6.46435e-36
3216 1 0.000635 -0.0020727 -0.01016 -0.010044 -6.77626e-21 0 2.16e-11 0 5.17148e-36
3303 1 0.000635 -0.000972852 -0.009525 -0.010044 0 0 2.16e-11 0 5.17148e-36
3389 1 0.000635 0.000127 -0.01016 -0.010044 0 0 2.16e-11 0 5.17148e-36
3476 1 0.000635 0.00122685 -0.009525 -0.010044 0 0 2.16e-11 0 5.17148e-36
3562 1 0.000635 0.0023267 -0.01016 -0.010044 0 0 2.16e-11 0 5.17148e-36
3649 1 0.000635 0.00342656 -0.009525 -0.010044 4.13115e-17 0 2.16e-11 0 1.0343e-35
3735 1 0.000635 0.00452641 -0.01016 -0.010044 4.52116e-08 -2.92648e-08 -2.8207e-06 7.83251e-11 3.10289e-35
3822 1 0.000635 0.00562626 -0.009525 -0.010044 3.6097e-08 -1.38786e-08 -2.25345e-06 5.05246e-11 3.74932e-35
3907 1 0.000635 0.00672611 -0.01016 -0.010044 1.39459e-05 -1.4739e-05 4.06586e-06 7.5046e-11 1.39444e-12
3993 1 0.000635 0.00782597 -0.009525 -0.010044 4.73006e-06 -3.17545e-05 2.13595e-06 2.21729e-10 3.95368e-12
4078 1 0.000635 0.00892415 -0.0101559 -0.00994836 2.28256e-11 -9.70098e-12 -9.38577e-11 1.00865e-09 4.36316e-11
4164 1 0.000635 0.0100138 -0.0095098 -0.00984007 -4.52366e-11 4.98547e-11 2.87082e-10 9.29541e-10 8.04293e-11
2277 1 0.000635 -0.014141 -0.00824485 -0.00956754 5.73816e-11 -1.00571e-11 1.92432e-10 2.20537e-09 8.84897e-11
2361 1 0.000635 -0.0130286 -0.00885145 -0.00951443 7.29359e-11 5.55314e-11 2.91406e-10 2.83364e-09 1.43589e-10
2446 1 0.000635 -0.0119631 -0.00825042 -0.00985457 -2.89119e-12 6.75571e-12 -1.07296e-10 1.51347e-09 1.30032e-11
2530 1 0.000635 -0.010862 -0.0088822 -0.00986976 -1.59562e-12 4.88411e-11 1.82507e-12 1.26955e-09 4.60552e-11
2616 1 0.000635 -0.00977167 -0.008255 -0.010044 -2.7039e-06 -6.76408e-05 1.08241e-05 3.85669e-10 2.80872e-11
2701 1 0.000635 -0.00867182 -0.00889 -0.010044 8.13435e-05 -6.3448e-06 -6.08731e-06 4.95584e-10 5.34535e-11
2787 1 0.000635 -0.00757197 -0.008255 -0.010044 -6.12088e-08 -3.12796e-08 -3.10911e-06 9.19973e-11 4.0079e-35
2872 1 0.000635 -0.00647211 -0.00889 -0.010044 -5.63219e-08 -3.82213e-08 -3.19789e-06 9.74489e-11 3.74932e-35
2958 1 0.000635 -0.00537226 -0.008255 -0.010044 1.44607e-16 -7.15799e-17 2.16e-11 5.26426e-25 4.0079e-35
3044 1 0.000635 -0.00427241 -0.00889 -0.010044 -1.03289e-16 -4.76841e-17 2.16e-11 1.05285e-24 2.71503e-35
3131 1 0.000635 -0.00317256 -0.008255 -0.010044 3.09912e-17 -7.75431e-17 2.16e-11 5.26426e-25 1.87466e-35
3217 1 0.000635 -0.0020727 -0.00889 -0.010044 -3.38813e-21 -4.76866e-17 2.16e-11 0 5.17148e-36
3304 1 0.000635 -0.000972852 -0.008255 -0.010044 0 -7.15833e-17 2.16e-11 0 1.0343e-35
3390 1 0.000635 0.000127 -0.00889 -0.010044 0 -4.76866e-17 2.16e-11 0 5.17148e-36
3477 1 0.000635 0.00122685 -0.008255 -0.010044 0 -7.15833e-17 2.16e-11 0 1.0343e-35
3563 1 0.000635 0.0023267 -0.00889 -0.010044 0 -4.76858e-17 2.16e-11 0 5.17148e-36
3650 1 0.000635 0.00342656 -0.008255 -0.010044 4.13098e-17 -7.15825e-17 2.16e-11 0 1.0343e-35
3736 1 0.000635 0.00452641 -0.00889 -0.010044 4.13115e-17 -4.76841e-17 2.16e-11 0 3.10289e-35
3823 1 0.000635 0.00562626 -0.008255 -0.010044 -1.446e-16 -7.15791e-17 2.16e-11 0 4.0079e-35
3908 1 0.000635 0.00672611 -0.00889 -0.010044 1.99423e-08 -2.10203e-08 -1.98735e-06 3.82876e-11 1.68073e-35
3994 1 0.000635 0.00782597 -0.008255 -0.010044 -1.22965e-08 -5.52132e-08 -2.67807e-06 7.63232e-11 1.0343e-35
4079 1 0.000635 0.00892582 -0.00889 -0.010044 -6.38903e-05 6.54337e-05 -1.56175e-05 5.45634e-10 2.94886e-11
4165 1 0.000635 0.0100257 -0.008255 -0.010044 0.00020089 2.55305e-05 4.76475e-05 7.60845e-10 2.33529e-10
4250 1 0.000635 0.0110564 -0.00883389 -0.00957891 -8.62778e-11 9.55239e-11 2.18123e-10 9.76172e-10 3.08492e-11
4335 1 0.000635 0.0120624 -0.00813278 -0.00924885 -7.00185e-10 5.30852e-10 9.44674e-10 8.82639e-10 1.37389e-11
2278 1 0.000635 -0.014129 -0.00697657 -0.00954222 -8.81535e-11 -5.45997e-12 -1.70308e-10 1.88491e-09 1.41597e-10
2362 1 0.000635 -0.0130622 -0.00761561 -0.00980304 4.44162e-11 3.49133e-11 3.0536e-10 1.42371e-09 4.66572e-11
2447 1 0.000635 -0.0119694 -0.00698453 -0.00995548 4.74667e-11 2.04299e-11 3.32211e-10 2.30422e-10 3.66017e-11
2531 1 0.000635 -0.0108712 -0.00761992 -0.0100098 -3.89053e-11 -2.92726e-11 -7.64653e-10 2.83549e-10 5.30122e-12
2617 1 0.000635 -0.00977167 -0.006985 -0.010044 -5.7825e-06 -3.29335e-06 -2.16983e-06 6.93193e-11 1.95827e-13
2702 1 0.000635 -0.00867182 -0.00762 -0.010044 -7.09727e-08 -1.5163e-08 -3.06749e-06 8.94583e-11 2.9736e-35
2788 1 0.000635 -0.00757197 -0.006985 -0.010044 1.44605e-16 -2.38958e-17 2.16e-11 0 4.0079e-35
2873 1 0.000635 -0.00647211 -0.00762 -0.010044 -1.44609e-16 2.38967e-17 2.16e-11 0 4.0079e-35
2959 1 0.000635 -0.00537226 -0.006985 -0.010044 1.44605e-16 -2.38958e-17 2.16e-11 0 4.0079e-35
3045 1 0.000635 -0.00427241 -0.00762 -0.010044 -1.13623e-16 2.98573e-17 2.16e-11 0 2.90896e-35
3132 1 0.000635 -0.00317256 -0.006985 -0.010044 3.09912e-17 -2.98573e-17 2.16e-11 0 1.87466e-35
3218 1 0.000635 -0.0020727 -0.00762 -0.010044 -1.69407e-21 2.38958e-17 2.16e-11 0 1.0343e-35
3305 1 0.000635 -0.000972852 -0.006985 -0.010044 0 -2.38967e-17 2.16e-11 0 1.0343e-35
3391 1 0.000635 0.000127 -0.00762 -0.010044 0 2.38967e-17 2.16e-11 0 1.0343e-35
3478 1 0.000635 0.00122685 -0.006985 -0.010044 0 -2.38967e-17 2.16e-11 0 1.0343e-35
3564 1 0.000635 0.0023267 -0.00762 -0.010044 0 2.38967e-17 2.16e-11 0 1.0343e-35
3651 1 0.000635 0.00342656 -0.006985 -0.010044 4.13081e-17 -2.38967e-17 2.16e-11 0 1.0343e-35
3737 1 0.000635 0.00452641 -0.00762 -0.010044 4.13217e-17 2.38958e-17 2.16e-11 0 2.06859e-35
3824 1 0.000635 0.00562626 -0.006985 -0.010044 -1.44599e-16 -2.3895e-17 2.16e-11 0 4.0079e-35
3909 1 0.000635 0.00672611 -0.00762 -0.010044 6.19757e-17 2.38958e-17 2.16e-11 0 2.9736e-35
3995 1 0.000635 0.00782597 -0.006985 -0.010044 -6.77626e-21 -2.38967e-17 2.16e-11 0 1.0343e-35
4080 1 0.000635 0.00892582 -0.00762 -0.010044 -4.7288e-08 -1.07337e-07 -4.94431e-06 3.42965e-10 1.0343e-35
4166 1 0.000635 0.0100257 -0.006985 -0.010044 -6.58691e-05 3.77772e-05 -1.23774e-05 5.95903e-10 2.67721e-11
4251 1 0.000635 0.0111205 -0.00761472 -0.00992501 6.33151e-11 -4.54378e-11 -4.90502e-10 9.20804e-10 3.3809e-10
4336 1 0.000635 0.0121883 -0.00695634 -0.00971108 4.48306e-11 -1.54929e-11 -1.67896e-10 1.07792e-09 2.18932e-10
2279 1 0.000635 -0.0141048 -0.00570922 -0.00947992 -4.94058e-11 -6.68296e-12 -2.94709e-11 8.2348e-11 8.81531e-11
2363 1 0.000635 -0.0130574 -0.00634636 -0.00980953 9.40137e-11 1.0896e-11 5.11819e-10 2.5324e-10 7.22257e-11
2448 1 0.000635 -0.0119706 -0.00571536 -0.0100019 -3.17895e-11 -2.63127e-12 -3.18202e-10 1.39414e-10 5.8109e-11
2532 1 0.000635 -0.0108715 -0.00635 -0.010044 -4.67774e-05 -5.39465e-05 4.48031e-06 7.98101e-11 1.86338e-11
2618 1 0.000635 -0.00977167 -0.005715 -0.010044 -2.65915e-09 4.60578e-09 -7.79972e-07 1.15116e-11 6.85221e-35
2703 1 0.000635 -0.00867182 -0.00635 -0.010044 -4.33933e-10 7.51594e-10 -3.01271e-07 1.7158e-12 2.9736e-35
2789 1 0.000635 -0.00757197 -0.005715 -0.010044 1.44602e-16 4.76832e-17 2.16e-11 0 3.74932e-35
2874 1 0.000635 -0.00647211 -0.00635 -0.010044 -1.44609e-16 7.15816e-17 2.16e-11 0 4.0079e-35
2960 1 0.000635 -0.00537226 -0.005715 -0.010044 1.44604e-16 4.76841e-17 2.16e-11 5.26426e-25 3.74932e-35
3046 1 0.000635 -0.00427241 -0.00635 -0.010044 -1.13621e-16 7.75431e-17 2.16e-11 0 2.90896e-35
3133 1 0.000635 -0.00317256 -0.005715 -0.010044 2.0671e-17 4.76858e-17 2.16e-11 5.26426e-25 6.46435e-36
3219 1 0.000635 -0.0020727 -0.00635 -0.010044 -5.0822e-21 7.15842e-17 2.16e-11 0 1.0343e-35
3306 1 0.000635 -0.000972852 -0.005715 -0.010044 0 4.76866e-17 2.16e-11 0 5.17148e-36
3392 1 0.000635 0.000127 -0.00635 -0.010044 0 7.1585e-17 2.16e-11 0 1.0343e-35
3479 1 0.000635 0.00122685 -0.005715 -0.010044 0 4.76866e-17 2.16e-11 0 5.17148e-36
3565 1 0.000635 0.0023267 -0.00635 -0.010044 0 7.15842e-17 2.16e-11 0 1.0343e-35
3652 1 0.000635 0.00342656 -0.005715 -0.010044 4.13098e-17 4.76858e-17 2.16e-11 0 1.0343e-35
3738 1 0.000635 0.00452641 -0.00635 -0.010044 4.13183e-17 7.15816e-17 2.16e-11 0 2.06859e-35
3825 1 0.000635 0.00562626 -0.005715 -0.010044 -1.44597e-16 4.76841e-17 2.16e-11 0 3.74932e-35
3910 1 0.000635 0.00672611 -0.00635 -0.010044 6.19774e-17 7.15825e-17 2.16e-11 0 2.9736e-35
3996 1 0.000635 0.00782597 -0.005715 -0.010044 -6.77626e-21 4.76849e-17 2.16e-11 0 5.17148e-36
4081 1 0.000635 0.00892582 -0.00635 -0.010044 -9.11706e-09 -1.57912e-08 -1.05053e-06 2.09089e-11 1.0343e-35
4167 1 0.000635 0.0100257 -0.005715 -0.010044 -2.76517e-08 -4.78942e-08 -2.94074e-06 1.66406e-10 6.85221e-35
4252 1 0.000635 0.0111255 -0.00635 -0.010044 -0.000181655 -1.86873e-05 -3.02642e-05 8.37999e-10 1.05791e-10
4337 1 0.000635 0.0122226 -0.00571616 -0.00999312 -1.52065e-11 2.25678e-11 1.4984e-10 1.1649e-09 2.55108e-10
4421 1 0.000635 0.0131956 -0.00625544 -0.0093823 1.9586e-12 2.04608e-11 1.20412e-10 1.90285e-09 3.56911e-11
2364 1 0.000635 -0.0130472 -0.0050769 -0.00979392 3.52359e-11 -1.05217e-12 1.68651e-10 1.9223e-10 1.68596e-10
2533 1 0.000635 -0.0108715 -0.00508 -0.010044 -1.19081e-05 -6.96868e-06 -2.90675e-06 1.55352e-10 8.43786e-13
2704 1 0.000635 -0.00867182 -0.00508 -0.010044 -6.19774e-17 -2.3845e-17 2.16e-11 0 1.42216e-35
2875 1 0.000635 -0.00647211 -0.00508 -0.010044 -1.44605e-16 -2.38442e-17 2.16e-11 0 3.49075e-35
3047 1 0.000635 -0.00427241 -0.00508 -0.010044 -1.03287e-16 -2.38433e-17 2.16e-11 1.57928e-24 2.45645e-35
3220 1 0.000635 -0.0020727 -0.00508 -0.010044 -3.38813e-21 -2.38442e-17 2.16e-11 0 2.58574e-36
3393 1 0.000635 0.000127 -0.00508 -0.010044 0 -2.38442e-17 2.16e-11 0 2.58574e-36
3566 1 0.000635 0.0023267 -0.00508 -0.010044 -3.38813e-21 -2.38459e-17 2.16e-11 0 2.58574e-36
3739 1 0.000635 0.00452641 -0.00508 -0.010044 4.13081e-17 -2.38433e-17 2.16e-11 5.26426e-25 2.84431e-35
3911 1 0.000635 0.00672611 -0.00508 -0.010044 6.19859e-17 -2.38442e-17 2.16e-11 0 1.42216e-35
4082 1 0.000635 0.00892582 -0.00508 -0.010044 -8.47033e-21 -2.3845e-17 2.16e-11 0 2.58574e-36
4253 1 0.000635 0.0111255 -0.00508 -0.010044 -3.61097e-05 2.06613e-05 -8.28943e-06 5.63565e-10 7.98427e-12
4422 1 0.000635 0.0133089 -0.00507815 -0.00984735 8.10586e-12 -1.39703e-11 -1.74921e-12 1.49464e-09 7.57137e-11
2280 1 0.000635 -0.014081 -0.00444207 -0.00941859 -2.04056e-10 6.96228e-12 -4.92615e-10 5.74661e-11 3.95945e-11
2365 1 0.000635 -0.0130351 -0.00380873 -0.00976333 1.43936e-10 -9.3498e-12 5.22733e-10 2.60185e-10 4.61789e-11
2449 1 0.000635 -0.0119714 -0.004445 -0.010044 -0.000155921 -0.000103797 4.81603e-05 2.32384e-10 1.13294e-10
2534 1 0.000635 -0.0108715 -0.00381 -0.010044 -1.19455e-07 -6.49809e-08 -4.61485e-06 2.04475e-10 4.65433e-35
2619 1 0.000635 -0.00977167 -0.004445 -0.010044 -2.98975e-09 5.17839e-09 -3.71289e-07 2.60685e-12 6.01185e-35
2705 1 0.000635 -0.00867182 -0.00381 -0.010044 -8.2623e-17 0 2.16e-11 1.05285e-24 2.06859e-35
2790 1 0.000635 -0.00757197 -0.004445 -0.010044 1.44602e-16 -5.96282e-17 2.16e-11 5.26426e-25 3.74932e-35
2876 1 0.000635 -0.00647211 -0.00381 -0.010044 -1.44605e-16 0 2.16e-11 0 3.23218e-35
2961 1 0.000635 -0.00537226 -0.004445 -0.010044 1.44604e-16 -5.9629e-17 2.16e-11 5.26426e-25 3.74932e-35
3048 1 0.000635 -0.00427241 -0.00381 -0.010044 -1.03291e-16 0 2.16e-11 0 1.68073e-35
3134 1 0.000635 -0.00317256 -0.004445 -0.010044 3.09963e-17 -5.36693e-17 2.16e-11 1.57928e-24 8.40366e-36
3221 1 0.000635 -0.0020727 -0.00381 -0.010044 -6.77626e-21 0 2.16e-11 2.10571e-24 0
3307 1 0.000635 -0.000972852 -0.004445 -0.010044 0 -4.77053e-17 2.16e-11 1.05285e-24 5.17148e-36
3394 1 0.000635 0.000127 -0.00381 -0.010044 0 0 2.16e-11 1.05285e-24 0
3480 1 0.000635 0.00122685 -0.004445 -0.010044 0 -4.77053e-17 2.16e-11 1.05285e-24 5.17148e-36
3567 1 0.000635 0.0023267 -0.00381 -0.010044 0 0 2.16e-11 2.10571e-24 0
3653 1 0.000635 0.00342656 -0.004445 -0.010044 3.09811e-17 -5.36701e-17 2.16e-11 1.05285e-24 8.40366e-36
3740 1 0.000635 0.00452641 -0.00381 -0.010044 4.13217e-17 7.70372e-34 2.16e-11 0 1.29287e-35
3826 1 0.000635 0.00562626 -0.004445 -0.010044 -1.44597e-16 -5.9629e-17 2.16e-11 5.26426e-25 3.74932e-35
3912 1 0.000635 0.00672611 -0.00381 -0.010044 8.26298e-17 0 2.16e-11 1.05285e-24 2.06859e-35
3997 1 0.000635 0.00782597 -0.004445 -0.010044 -3.38813e-21 -4.77061e-17 2.16e-11 1.05285e-24 5.17148e-36
4083 1 0.000635 0.00892582 -0.00381 -0.010044 -6.77626e-21 0 2.16e-11 1.05285e-24 0
4168 1 0.000635 0.0100257 -0.004445 -0.010044 1.04661e-08 1.81279e-08 -4.48943e-07 3.819e-12 6.01185e-35
4254 1 0.000635 0.0111255 -0.00381 -0.010044 6.50494e-08 -1.25813e-08 -3.3823e-06 1.08954e-10 4.65433e-35
4338 1 0.000635 0.0122254 -0.004445 -0.010044 9.02042e-05 -8.36496e-05 1.64104e-05 1.25311e-09 1.03168e-10
4423 1 0.000635 0.0133138 -0.00380879 -0.00987755 -4.33755e-11 -1.04079e-11 2.14802e-10 8.59705e-10 9.22729e-11
4507 1 0.000635 0.014377 -0.00444194 -0.00959135 1.94732e-12 -1.39899e-11 1.17197e-11 1.42569e-09 1.98375e-11
4591 1 0.000635 0.0154324 -0.00380743 -0.00928175 -4.39496e-11 1.0933e-11 9.98065e-11 8.40499e-10 2.30763e-11
2281 1 0.000635 -0.0140705 -0.00317337 -0.00939277 -9.15923e-11 2.08515e-12 -2.00905e-10 3.6562e-11 2.29599e-11
2366 1 0.000635 -0.0130368 -0.00253934 -0.00977022 -7.15298e-11 -8.34072e-12 -2.20813e-10 2.62292e-10 1.09285e-11
2450 1 0.000635 -0.0119714 -0.003175 -0.010044 -1.01497e-06 2.43435e-05 8.1653e-06 2.55147e-10 5.39902e-12
2535 1 0.000635 -0.0108715 -0.00254 -0.010044 -1.50193e-07 -7.18258e-10 -4.86342e-06 2.27144e-10 6.33506e-35
2620 1 0.000635 -0.00977167 -0.003175 -0.010044 -1.3427e-16 4.1748e-17 2.16e-11 5.26426e-25 5.81792e-35
2706 1 0.000635 -0.00867182 -0.00254 -0.010044 -7.2301e-17 -5.97417e-18 2.16e-11 0 1.61609e-35
2791 1 0.000635 -0.00757197 -0.003175 -0.010044 1.44602e-16 4.77053e-17 2.16e-11 5.26426e-25 3.55539e-35
2877 1 0.000635 -0.00647211 -0.00254 -0.010044 -1.44605e-16 -1.19365e-17 2.16e-11 0 3.23218e-35
2962 1 0.000635 -0.00537226 -0.003175 -0.010044 1.44604e-16 4.7707e-17 2.16e-11 0 3.55539e-35
3049 1 0.000635 -0.00427241 -0.00254 -0.010044 -1.03284e-16 -1.19373e-17 2.16e-11 5.26426e-25 1.93931e-35
3135 1 0.000635 -0.00317256 -0.003175 -0.010044 3.09963e-17 4.17472e-17 2.16e-11 1.05285e-24 6.46435e-36
3222 1 0.000635 -0.0020727 -0.00254 -0.010044 0 -1.43996e-20 2.16e-11 0 0
3308 1 0.000635 -0.000972852 -0.003175 -0.010044 0 3.57823e-17 2.16e-11 1.05285e-24 3.23218e-36
3395 1 0.000635 0.000127 -0.00254 -0.010044 0 -1.35525e-20 2.16e-11 0 0
3481 1 0.000635 0.00122685 -0.003175 -0.010044 0 3.57823e-17 2.16e-11 1.05285e-24 3.23218e-36
3568 1 0.000635 0.0023267 -0.00254 -0.010044 -6.77626e-21 -1.35525e-20 2.16e-11 0 0
3654 1 0.000635 0.00342656 -0.003175 -0.010044 3.09777e-17 4.17463e-17 2.16e-11 1.05285e-24 6.46435e-36
3741 1 0.000635 0.00452641 -0.00254 -0.010044 4.13115e-17 -1.19382e-17 2.16e-11 5.26426e-25 1.93931e-35
3827 1 0.000635 0.00562626 -0.003175 -0.010044 -1.44595e-16 4.77053e-17 2.16e-11 5.26426e-25 3.55539e-35
3913 1 0.000635 0.00672611 -0.00254 -0.010044 7.23095e-17 -5.97502e-18 2.16e-11 0 1.61609e-35
3998 1 0.000635 0.00782597 -0.003175 -0.010044 0 3.57823e-17 2.16e-11 1.05285e-24 3.23218e-36
4084 1 0.000635 0.00892582 -0.00254 -0.010044 -8.47033e-21 -1.27055e-20 2.16e-11 0 0
4169 1 0.000635 0.0100257 -0.003175 -0.010044 1.3427e-16 4.1748e-17 2.16e-11 5.26426e-25 5.81792e-35
4255 1 0.000635 0.0111255 -0.00254 -0.010044 5.83433e-08 -2.95113e-08 -3.16186e-06 9.55828e-11 6.33506e-35
4339 1 0.000635 0.0122254 -0.003175 -0.010044 5.36319e-05 8.42762e-06 1.28482e-05 1.28884e-10 9.6406e-12
4424 1 0.000635 0.0133097 -0.00253946 -0.00985699 9.53965e-11 6.17763e-13 -5.28399e-10 1.44534e-10 1.85891e-11
4508 1 0.000635 0.0143856 -0.00317318 -0.00962307 -2.86117e-11 -2.00221e-12 6.24575e-11 1.03107e-09 1.04368e-10
4592 1 0.000635 0.0154383 -0.00253852 -0.00929751 -2.12274e-11 1.26398e-11 5.86706e-12 4.39282e-10 7.81318e-11
2282 1 0.000635 -0.014071 -0.00190413 -0.00939546 1.89032e-11 -2.8573e-12 5.36264e-11 4.03144e-11 1.47468e-11
2367 1 0.000635 -0.0130376 -0.00126971 -0.00977325 6.765e-12 -2.27668e-12 3.06369e-11 2.58844e-10 5.22965e-12
2451 1 0.000635 -0.0119714 -0.001905 -0.010044 -4.32966e-06 1.39728e-05 8.88693e-06 2.5617e-10 1.85453e-12
2536 1 0.000635 -0.0108715 -0.00127 -0.010044 -1.47313e-07 -6.50794e-10 -4.79716e-06 2.20847e-10 6.33506e-35
2621 1 0.000635 -0.00977167 -0.001905 -0.010044 -1.44592e-16 -1.19229e-17 2.16e-11 5.26426e-25 6.39971e-35
2707 1 0.000635 -0.00867182 -0.00127 -0.010044 -7.2301e-17 5.96909e-18 2.16e-11 5.26426e-25 1.61609e-35
2792 1 0.000635 -0.00757197 -0.001905 -0.010044 1.44605e-16 -1.19229e-17 2.16e-11 0 3.29682e-35
2878 1 0.000635 -0.00647211 -0.00127 -0.010044 -1.44605e-16 1.19331e-17 2.16e-11 0 3.23218e-35
2963 1 0.000635 -0.00537226 -0.001905 -0.010044 1.44602e-16 -1.19246e-17 2.16e-11 0 3.29682e-35
3050 1 0.000635 -0.00427241 -0.00127 -0.010044 -1.13613e-16 5.96993e-18 2.16e-11 0 2.13324e-35
3136 1 0.000635 -0.00317256 -0.001905 -0.010044 4.13081e-17 -1.19229e-17 2.16e-11 0 5.81792e-36
3223 1 0.000635 -0.0020727 -0.00127 -0.010044 0 7.6233e-21 2.16e-11 0 0
3309 1 0.000635 -0.000972852 -0.001905 -0.010044 0 -1.19229e-17 2.16e-11 0 6.46435e-37
3396 1 0.000635 0.000127 -0.00127 -0.010044 0 6.77626e-21 2.16e-11 0 0
3482 1 0.000635 0.00122685 -0.001905 -0.010044 0 -1.19229e-17 2.16e-11 0 6.46435e-37
3569 1 0.000635 0.0023267 -0.00127 -0.010044 -6.77626e-21 6.77626e-21 2.16e-11 0 0
3655 1 0.000635 0.00342656 -0.001905 -0.010044 2.06608e-17 -1.19229e-17 2.16e-11 0 1.93931e-36
3742 1 0.000635 0.00452641 -0.00127 -0.010044 4.13149e-17 1.19331e-17 2.16e-11 5.26426e-25 1.93931e-35
3828 1 0.000635 0.00562626 -0.001905 -0.010044 -1.44599e-16 -1.19229e-17 2.16e-11 0 3.29682e-35
3914 1 0.000635 0.00672611 -0.00127 -0.010044 7.23078e-17 5.96909e-18 2.16e-11 5.26426e-25 1.61609e-35
3999 1 0.000635 0.00782597 -0.001905 -0.010044 -6.77626e-21 -1.19229e-17 2.16e-11 5.26426e-25 6.46435e-37
4085 1 0.000635 0.00892582 -0.00127 -0.010044 -6.77626e-21 6.77626e-21 2.16e-11 0 0
4170 1 0.000635 0.0100257 -0.001905 -0.010044 1.44599e-16 -1.19229e-17 2.16e-11 0 6.39971e-35
4256 1 0.000635 0.0111255 -0.00127 -0.010044 6.91532e-08 -8.63653e-09 -3.34353e-06 1.0643e-10 6.33506e-35
4340 1 0.000635 0.0122254 -0.001905 -0.010044 2.00061e-05 1.53817e-06 9.02693e-06 1.2158e-10 1.31645e-12
4425 1 0.000635 0.0133085 -0.0012698 -0.00985184 1.29659e-10 9.77135e-13 -6.83414e-10 1.3352e-10 3.4333e-12
4509 1 0.000635 0.0143766 -0.00190427 -0.00958747 -3.20606e-11 -2.5347e-12 -6.0647e-12 4.79977e-11 1.47495e-11
4593 1 0.000635 0.0154282 -0.00126951 -0.00926305 -3.46167e-11 1.18591e-11 -1.18027e-11 2.42688e-11 1.02515e-11
2283 1 0.000635 -0.0140717 -0.000634731 -0.00939797 -1.00133e-10 -8.81401e-13 -2.4825e-10 4.0557e-11 1.11935e-11
2452 1 0.000635 -0.0119714 -0.000635 -0.010044 -7.65001e-06 4.13983e-06 9.64396e-06 2.54712e-10 3.78817e-13
2622 1 0.000635 -0.00977167 -0.000635 -0.010044 -1.44599e-16 -8.47033e-21 2.16e-11 0 6.33506e-35
2793 1 0.000635 -0.00757197 -0.000635 -0.010044 1.44604e-16 -1.19339e-17 2.16e-11 5.26426e-25 3.23218e-35
2964 1 0.000635 -0.00537226 -0.000635 -0.010044 1.44604e-16 -1.19365e-17 2.16e-11 0 3.23218e-35
3137 1 0.000635 -0.00317256 -0.000635 -0.010044 4.13183e-17 -8.47033e-21 2.16e-11 0 5.17148e-36
3310 1 0.000635 -0.000972852 -0.000635 -0.010044 0 -8.47033e-21 2.16e-11 0 0
3483 1 0.000635 0.00122685 -0.000635 -0.010044 0 -8.47033e-21 2.16e-11 0 0
3656 1 0.000635 0.00342656 -0.000635 -0.010044 3.09811e-17 -5.97078e-18 2.16e-11 5.26426e-25 3.23218e-36
3829 1 0.000635 0.00562626 -0.000635 -0.010044 -1.44597e-16 -1.19339e-17 2.16e-11 5.26426e-25 3.23218e-35
4000 1 0.000635 0.00782597 -0.000635 -0.010044 0 -8.47033e-21 2.16e-11 0 0
4171 1 0.000635 0.0100257 -0.000635 -0.010044 1.44599e-16 -8.47033e-21 2.16e-11 0 6.33506e-35
4341 1 0.000635 0.0122254 -0.000635 -0.010044 5.66195e-06 1.14596e-06 6.38577e-06 1.29174e-10 1.24168e-13
4426 1 0.000635 0.0133084 -1.02477e-15 -0.00985186 1.85828e-10 3.66512e-14 -9.35941e-10 1.35789e-10 1.52604e-12
4510 1 0.000635 0.0143723 -0.0006348 -0.00957213 1.39273e-10 2.56045e-12 -6.78892e-10 3.1026e-11 5.38137e-12
4594 1 0.000635 0.015424 -5.43952e-15 -0.00924948 -2.23679e-10 -2.78206e-14 5.4925e-10 1.23804e-11 5.10612e-12
2284 1 0.000635 -0.0140717 0.000634731 -0.00939797 -1.00211e-10 8.95264e-13 -2.48221e-10 4.0557e-11 1.11935e-11
2368 1 0.000635 -0.0130377 -2.85205e-17 -0.00977385 1.02102e-12 -2.14349e-14 2.27121e-11 2.58476e-10 3.90216e-12
2453 1 0.000635 -0.0119714 0.000635 -0.010044 -7.65001e-06 -4.13983e-06 9.64396e-06 2.54712e-10 3.78817e-13
2537 1 0.000635 -0.0108715 0 -0.010044 -1.46159e-07 1.41641e-17 -4.77566e-06 2.18832e-10 6.33506e-35
2623 1 0.000635 -0.00977167 0.000635 -0.010044 -1.44599e-16 -3.38813e-21 2.16e-11 0 6.33506e-35
2708 1 0.000635 -0.00867182 0 -0.010044 -8.26247e-17 5.92923e-21 2.16e-11 0 2.06859e-35
2794 1 0.000635 -0.00757197 0.000635 -0.010044 1.44602e-16 -3.38813e-21 2.16e-11 0 3.23218e-35
2879 1 0.000635 -0.00647211 0 -0.010044 -1.44605e-16 5.0822e-21 2.16e-11 0 3.23218e-35
2965 1 0.000635 -0.00537226 0.000635 -0.010044 1.44602e-16 -3.38813e-21 2.16e-11 0 3.23218e-35
3051 1 0.000635 -0.00427241 0 -0.010044 -1.03282e-16 5.92923e-21 2.16e-11 0 1.68073e-35
3138 1 0.000635 -0.00317256 0.000635 -0.010044 4.13149e-17 -3.38813e-21 2.16e-11 0 5.17148e-36
3224 1 0.000635 -0.0020727 0 -0.010044 0 6.77626e-21 2.16e-11 0 0
3311 1 0.000635 -0.000972852 0.000635 -0.010044 0 -3.38813e-21 2.16e-11 0 0
3397 1 0.000635 0.000127 0 -0.010044 0 6.77626e-21 2.16e-11 0 0
3484 1 0.000635 0.00122685 0.000635 -0.010044 0 -3.38813e-21 2.16e-11 0 0
3570 1 0.000635 0.0023267 0 -0.010044 -3.38813e-21 5.0822e-21 2.16e-11 5.26426e-25 0
3657 1 0.000635 0.00342656 0.000635 -0.010044 2.06574e-17 -3.38813e-21 2.16e-11 0 1.29287e-36
3743 1 0.000635 0.00452641 0 -0.010044 4.13132e-17 5.92923e-21 2.16e-11 0 1.29287e-35
3830 1 0.000635 0.00562626 0.000635 -0.010044 -1.44595e-16 -3.38813e-21 2.16e-11 0 3.23218e-35
3915 1 0.000635 0.00672611 0 -0.010044 8.26315e-17 5.92923e-21 2.16e-11 0 2.06859e-35
4001 1 0.000635 0.00782597 0.000635 -0.010044 0 -3.38813e-21 2.16e-11 0 0
4086 1 0.000635 0.00892582 0 -0.010044 -6.77626e-21 6.77626e-21 2.16e-11 0 0
4172 1 0.000635 0.0100257 0.000635 -0.010044 1.44599e-16 -3.38813e-21 2.16e-11 0 6.33506e-35
4257 1 0.000635 0.0111255 0 -0.010044 7.23082e-08 -1.7011e-17 -3.38936e-06 1.09375e-10 6.33506e-35
4342 1 0.000635 0.0122254 0.000635 -0.010044 5.66195e-06 -1.14596e-06 6.38577e-06 1.29174e-10 1.24168e-13
4511 1 0.000635 0.0143723 0.0006348 -0.00957213 1.39231e-10 -2.47177e-12 -6.78904e-10 3.1026e-11 5.38137e-12
2285 1 0.000635 -0.014071 0.00190413 -0.00939546 1.89821e-11 2.83865e-12 5.35949e-11 4.03144e-11 1.47468e-11
2369 1 0.000635 -0.0130376 0.00126971 -0.00977325 6.83938e-12 2.26965e-12 3.06177e-11 2.58844e-10 5.22965e-12
2454 1 0.000635 -0.0119714 0.001905 -0.010044 -4.32966e-06 -1.39728e-05 8.88693e-06 2.5617e-10 1.85453e-12
2538 1 0.000635 -0.0108715 0.00127 -0.010044 -1.47313e-07 6.50794e-10 -4.79716e-06 2.20847e-10 6.33506e-35