ITEM: TIMESTEP
450000
ITEM: NUMBER OF ATOMS
6793
ITEM: BOX BOUNDS ff ff ff
-8.9999999999999997e-02 8.9999999999999997e-02
-8.9999999999999997e-02 8.9999999999999997e-02
-4.0000000000000001e-02 4.0000000000000001e-02
ITEM: ATOMS id type radius x y z fx fy fz c_bendingE c_stretchingE
3386 1 0.000635 0.000127126 -0.0139688 -0.00479523 1.72504e-11 4.18373e-10 3.99195e-09 3.45779e-10 1.39032e-11
3559 1 0.000635 0.0023246 -0.0139632 -0.00471046 1.65817e-10 -2.18175e-10 -3.09327e-09 4.67722e-11 9.4449e-11
3214 1 0.000635 -0.0020727 -0.0127 -0.00486 -4.42019e-05 2.0254e-05 1.79297e-06 3.78981e-10 2.1673e-11
3300 1 0.000635 -0.000972854 -0.0133348 -0.00484207 -7.13182e-11 -4.13987e-10 -6.24312e-09 2.76114e-10 1.15652e-11
3387 1 0.000635 0.000127 -0.0127 -0.00486 1.63036e-05 -3.5311e-05 1.63894e-06 5.31314e-11 4.60505e-12
3473 1 0.000635 0.0012268 -0.0133344 -0.00481732 1.20477e-10 -2.24702e-10 -4.16161e-09 4.24347e-11 1.54883e-11
3560 1 0.000635 0.0023267 -0.0127 -0.00486 3.47129e-05 -0.000155303 2.66206e-05 6.40443e-11 7.89234e-11
3646 1 0.000635 0.00342347 -0.0133282 -0.00472425 7.06297e-10 -1.24842e-09 -1.11263e-08 5.69949e-11 4.96856e-11
3733 1 0.000635 0.00452392 -0.0126951 -0.00474632 1.90547e-10 -6.44567e-11 -1.27422e-09 4.34579e-11 8.59937e-12
3042 1 0.000635 -0.00427241 -0.01143 -0.00486 -6.40691e-06 3.04019e-05 -1.22705e-06 2.07479e-10 5.59312e-12
3128 1 0.000635 -0.00317256 -0.012065 -0.00486 -2.2746e-05 4.80861e-05 -2.94577e-06 2.5206e-10 2.02476e-11
3215 1 0.000635 -0.0020727 -0.01143 -0.00486 8.58883e-09 -6.05968e-08 -3.02719e-06 8.71144e-11 5.17148e-36
3301 1 0.000635 -0.000972852 -0.012065 -0.00486 3.24985e-08 5.60068e-06 -2.88502e-06 7.58217e-11 1.47046e-13
3388 1 0.000635 0.000127 -0.01143 -0.00486 -1.10651e-09 0 -5.70989e-07 6.16567e-12 5.17148e-36
3474 1 0.000635 0.00122685 -0.012065 -0.00486 -1.00843e-08 -4.82257e-06 -1.13048e-06 3.92984e-11 1.03863e-13
3561 1 0.000635 0.0023267 -0.01143 -0.00486 5.29846e-09 -2.2878e-08 -2.31898e-06 5.19201e-11 5.17148e-36
3647 1 0.000635 0.00342656 -0.012065 -0.00486 2.35548e-05 -3.77228e-05 8.62634e-06 5.12689e-11 6.1342e-12
3734 1 0.000635 0.00452641 -0.01143 -0.00486 1.02087e-05 -1.7031e-05 4.86064e-06 3.60273e-11 1.21883e-12
3820 1 0.000635 0.00562447 -0.012062 -0.00476884 8.89998e-11 1.36557e-10 6.28685e-10 3.19936e-11 3.6653e-12
3906 1 0.000635 0.00672491 -0.0114286 -0.00479117 1.64558e-10 -9.26215e-11 -2.0753e-09 4.32332e-11 7.80871e-12
2785 1 0.000635 -0.00756634 -0.0107865 -0.00471166 -4.67135e-13 8.73454e-10 5.2319e-09 2.28754e-10 1.13608e-11
2956 1 0.000635 -0.00537226 -0.010795 -0.00486 7.33984e-06 1.99566e-05 -7.57949e-07 1.88153e-10 1.49973e-12
3129 1 0.000635 -0.00317256 -0.010795 -0.00486 -1.6057e-08 -5.28675e-08 -3.03192e-06 8.74038e-11 6.46435e-36
3302 1 0.000635 -0.000972852 -0.010795 -0.00486 1.49791e-11 -1.69407e-21 -1.58147e-07 4.7279e-13 5.17148e-36
3475 1 0.000635 0.00122685 -0.010795 -0.00486 4.82703e-10 0 -3.76393e-07 2.67834e-12 5.17148e-36
3648 1 0.000635 0.00342656 -0.010795 -0.00486 1.96316e-08 -1.31085e-08 -2.00065e-06 3.93918e-11 1.0343e-35
3821 1 0.000635 0.00562626 -0.010795 -0.00486 4.93197e-06 -1.7101e-05 3.41178e-06 2.52066e-11 1.07985e-12
3992 1 0.000635 0.0078252 -0.0107944 -0.00480995 -2.31564e-11 -1.65767e-10 -1.42373e-09 1.39013e-10 1.63411e-11
2615 1 0.000635 -0.00976685 -0.00951969 -0.00473757 2.86714e-10 3.96121e-10 4.88517e-09 2.45147e-10 3.71661e-11
2700 1 0.000635 -0.00866662 -0.0101532 -0.00472473 1.40677e-09 2.94119e-09 2.03569e-08 2.29901e-10 2.23748e-11
2786 1 0.000635 -0.00757197 -0.009525 -0.00486 3.24608e-05 8.45803e-06 -1.20181e-06 1.69136e-10 6.90599e-12
2871 1 0.000635 -0.00647211 -0.01016 -0.00486 2.01277e-05 1.35011e-05 -8.89529e-07 1.77084e-10 2.5164e-12
2957 1 0.000635 -0.00537226 -0.009525 -0.00486 -3.45084e-08 -3.49015e-08 -2.79741e-06 7.46347e-11 3.74932e-35
3043 1 0.000635 -0.00427241 -0.01016 -0.00486 -2.77696e-08 -4.42205e-08 -2.9468e-06 8.26714e-11 2.71503e-35
3130 1 0.000635 -0.00317256 -0.009525 -0.00486 2.0671e-17 0 2.16e-11 1.05285e-24 6.46435e-36
3216 1 0.000635 -0.0020727 -0.01016 -0.00486 -6.77626e-21 0 2.16e-11 0 5.17148e-36
3303 1 0.000635 -0.000972852 -0.009525 -0.00486 0 0 2.16e-11 0 5.17148e-36
3389 1 0.000635 0.000127 -0.01016 -0.00486 0 0 2.16e-11 0 5.17148e-36
3476 1 0.000635 0.00122685 -0.009525 -0.00486 0 0 2.16e-11 0 5.17148e-36
3562 1 0.000635 0.0023267 -0.01016 -0.00486 0 0 2.16e-11 0 5.17148e-36
3649 1 0.000635 0.00342656 -0.009525 -0.00486 4.13115e-17 0 2.16e-11 0 1.0343e-35
3735 1 0.000635 0.00452641 -0.01016 -0.00486 1.90507e-08 -4.97491e-09 -1.60941e-06 2.6006e-11 3.10289e-35
3822 1 0.000635 0.00562626 -0.009525 -0.00486 1.51141e-08 -1.18939e-09 -1.24524e-06 1.59149e-11 3.74932e-35
3907 1 0.000635 0.00672611 -0.01016 -0.00486 3.14356e-07 -2.33788e-05 1.97533e-06 3.02559e-11 2.44242e-12
3993 1 0.000635 0.00782597 -0.009525 -0.00486 -8.43106e-06 -1.50932e-05 -2.33213e-07 8.7789e-11 2.23702e-12
4078 1 0.000635 0.00892491 -0.0101582 -0.00479832 -1.10461e-09 1.02275e-09 1.46786e-08 2.1843e-10 1.17365e-11
4164 1 0.000635 0.0100202 -0.00951842 -0.00472482 -2.54505e-11 -1.33073e-10 2.4603e-10 2.39563e-10 2.6346e-11
2446 1 0.000635 -0.0119681 -0.00825315 -0.00475082 7.75547e-13 5.04067e-10 2.1145e-09 3.33139e-10 8.23091e-12
2530 1 0.000635 -0.0108673 -0.00888654 -0.00474902 -1.44497e-10 6.93714e-11 3.92521e-10 3.0358e-10 2.33058e-11
2616 1 0.000635 -0.00977167 -0.008255 -0.00486 2.18269e-05 -1.761e-05 1.71483e-06 1.4464e-10 8.83117e-12
2701 1 0.000635 -0.00867182 -0.00889 -0.00486 4.31166e-05 2.92437e-06 -1.45748e-06 1.59953e-10 1.34932e-11
2787 1 0.000635 -0.00757197 -0.008255 -0.00486 -3.99081e-08 -1.6758e-08 -2.38856e-06 5.46144e-11 4.0079e-35
2872 1 0.000635 -0.00647211 -0.00889 -0.00486 -3.82228e-08 -2.53982e-08 -2.60304e-06 6.47603e-11 3.74932e-35
2958 1 0.000635 -0.00537226 -0.008255 -0.00486 1.44607e-16 -7.15799e-17 2.16e-11 5.26426e-25 4.0079e-35
3044 1 0.000635 -0.00427241 -0.00889 -0.00486 -1.03289e-16 -4.76841e-17 2.16e-11 1.05285e-24 2.71503e-35
3131 1 0.000635 -0.00317256 -0.008255 -0.00486 3.09912e-17 -7.75431e-17 2.16e-11 5.26426e-25 1.87466e-35
3217 1 0.000635 -0.0020727 -0.00889 -0.00486 -3.38813e-21 -4.76866e-17 2.16e-11 0 5.17148e-36
3304 1 0.000635 -0.000972852 -0.008255 -0.00486 0 -7.15833e-17 2.16e-11 0 1.0343e-35
3390 1 0.000635 0.000127 -0.00889 -0.00486 0 -4.76866e-17 2.16e-11 0 5.17148e-36
3477 1 0.000635 0.00122685 -0.008255 -0.00486 0 -7.15833e-17 2.16e-11 0 1.0343e-35
3563 1 0.000635 0.0023267 -0.00889 -0.00486 0 -4.76858e-17 2.16e-11 0 5.17148e-36
3650 1 0.000635 0.00342656 -0.008255 -0.00486 4.13098e-17 -7.15825e-17 2.16e-11 0 1.0343e-35
3736 1 0.000635 0.00452641 -0.00889 -0.00486 4.13115e-17 -4.76841e-17 2.16e-11 0 3.10289e-35
3823 1 0.000635 0.00562626 -0.008255 -0.00486 -1.446e-16 -7.15791e-17 2.16e-11 0 4.0079e-35
3908 1 0.000635 0.00672611 -0.00889 -0.00486 5.75201e-09 -8.3617e-09 -1.15085e-06 1.25645e-11 1.68073e-35
3994 1 0.000635 0.00782597 -0.008255 -0.00486 -6.32343e-09 -2.27169e-08 -1.63428e-06 3.06681e-11 1.0343e-35
4079 1 0.000635 0.00892582 -0.00889 -0.00486 -3.7598e-05 3.73543e-05 -5.82131e-06 1.73185e-10 9.8548e-12
4165 1 0.000635 0.0100257 -0.008255 -0.00486 8.44622e-05 -8.49091e-06 1.94127e-05 2.34199e-10 3.37864e-11
2362 1 0.000635 -0.0130683 -0.00761846 -0.00472455 -8.74953e-10 -4.90235e-10 -9.64506e-09 3.41149e-10 1.44926e-11
2447 1 0.000635 -0.011971 -0.00698473 -0.00481364 -7.63488e-10 -3.4406e-10 -1.39932e-08 9.63398e-11 6.36078e-12
2531 1 0.000635 -0.0108715 -0.00761998 -0.00484574 1.06994e-10 1.77276e-10 3.30323e-09 1.20757e-10 2.1532e-12
2617 1 0.000635 -0.00977167 -0.006985 -0.00486 -2.14043e-06 -1.21193e-06 -1.77542e-06 3.32874e-11 2.65197e-14
2702 1 0.000635 -0.00867182 -0.00762 -0.00486 -4.18839e-08 -6.79139e-09 -2.17184e-06 4.51529e-11 2.9736e-35
2788 1 0.000635 -0.00757197 -0.006985 -0.00486 1.44605e-16 -2.38958e-17 2.16e-11 0 4.0079e-35
2873 1 0.000635 -0.00647211 -0.00762 -0.00486 -1.44609e-16 2.38967e-17 2.16e-11 0 4.0079e-35
2959 1 0.000635 -0.00537226 -0.006985 -0.00486 1.44605e-16 -2.38958e-17 2.16e-11 0 4.0079e-35
3045 1 0.000635 -0.00427241 -0.00762 -0.00486 -1.13623e-16 2.98573e-17 2.16e-11 0 2.90896e-35
3132 1 0.000635 -0.00317256 -0.006985 -0.00486 3.09912e-17 -2.98573e-17 2.16e-11 0 1.87466e-35
3218 1 0.000635 -0.0020727 -0.00762 -0.00486 -1.69407e-21 2.38958e-17 2.16e-11 0 1.0343e-35
3305 1 0.000635 -0.000972852 -0.006985 -0.00486 0 -2.38967e-17 2.16e-11 0 1.0343e-35
3391 1 0.000635 0.000127 -0.00762 -0.00486 0 2.38967e-17 2.16e-11 0 1.0343e-35
3478 1 0.000635 0.00122685 -0.006985 -0.00486 0 -2.38967e-17 2.16e-11 0 1.0343e-35
3564 1 0.000635 0.0023267 -0.00762 -0.00486 0 2.38967e-17 2.16e-11 0 1.0343e-35
3651 1 0.000635 0.00342656 -0.006985 -0.00486 4.13081e-17 -2.38967e-17 2.16e-11 0 1.0343e-35
3737 1 0.000635 0.00452641 -0.00762 -0.00486 4.13217e-17 2.38958e-17 2.16e-11 0 2.06859e-35
3824 1 0.000635 0.00562626 -0.006985 -0.00486 -1.44599e-16 -2.3895e-17 2.16e-11 0 4.0079e-35
3909 1 0.000635 0.00672611 -0.00762 -0.00486 6.19757e-17 2.38958e-17 2.16e-11 0 2.9736e-35
3995 1 0.000635 0.00782597 -0.006985 -0.00486 -6.77626e-21 -2.38967e-17 2.16e-11 0 1.0343e-35
4080 1 0.000635 0.00892582 -0.00762 -0.00486 -1.72928e-08 -4.37809e-08 -3.09497e-06 1.30254e-10 1.0343e-35
4166 1 0.000635 0.0100257 -0.006985 -0.00486 -3.4759e-05 2.00059e-05 -5.34629e-06 1.87576e-10 7.4002e-12
4251 1 0.000635 0.0111234 -0.0076179 -0.00478539 6.52321e-10 -5.53066e-10 -7.30455e-09 2.56528e-10 4.59246e-11
2363 1 0.000635 -0.0130681 -0.00634902 -0.00473492 6.18138e-10 -2.89893e-10 3.27006e-09 8.51378e-11 2.3643e-11
2448 1 0.000635 -0.0119711 -0.00571498 -0.00483017 -4.74706e-10 -2.02539e-10 -1.0374e-08 3.25522e-11 8.57915e-12
2532 1 0.000635 -0.0108715 -0.00635 -0.00486 -2.51118e-05 -1.13161e-05 8.67278e-07 2.50622e-11 2.51277e-12
2618 1 0.000635 -0.00977167 -0.005715 -0.00486 2.26187e-10 -3.91767e-10 -4.08702e-07 3.15801e-12 6.85221e-35
2703 1 0.000635 -0.00867182 -0.00635 -0.00486 -9.32685e-12 1.61545e-11 -1.25716e-07 2.98779e-13 2.9736e-35
2789 1 0.000635 -0.00757197 -0.005715 -0.00486 1.44602e-16 4.76832e-17 2.16e-11 0 3.74932e-35
2874 1 0.000635 -0.00647211 -0.00635 -0.00486 -1.44609e-16 7.15816e-17 2.16e-11 0 4.0079e-35
2960 1 0.000635 -0.00537226 -0.005715 -0.00486 1.44604e-16 4.76841e-17 2.16e-11 5.26426e-25 3.74932e-35
3046 1 0.000635 -0.00427241 -0.00635 -0.00486 -1.13621e-16 7.75431e-17 2.16e-11 0 2.90896e-35
3133 1 0.000635 -0.00317256 -0.005715 -0.00486 2.0671e-17 4.76858e-17 2.16e-11 5.26426e-25 6.46435e-36
3219 1 0.000635 -0.0020727 -0.00635 -0.00486 -5.0822e-21 7.15842e-17 2.16e-11 0 1.0343e-35
3306 1 0.000635 -0.000972852 -0.005715 -0.00486 0 4.76866e-17 2.16e-11 0 5.17148e-36
3392 1 0.000635 0.000127 -0.00635 -0.00486 0 7.1585e-17 2.16e-11 0 1.0343e-35
3479 1 0.000635 0.00122685 -0.005715 -0.00486 0 4.76866e-17 2.16e-11 0 5.17148e-36
3565 1 0.000635 0.0023267 -0.00635 -0.00486 0 7.15842e-17 2.16e-11 0 1.0343e-35
3652 1 0.000635 0.00342656 -0.005715 -0.00486 4.13098e-17 4.76858e-17 2.16e-11 0 1.0343e-35
3738 1 0.000635 0.00452641 -0.00635 -0.00486 4.13183e-17 7.15816e-17 2.16e-11 0 2.06859e-35
3825 1 0.000635 0.00562626 -0.005715 -0.00486 -1.44597e-16 4.76841e-17 2.16e-11 0 3.74932e-35
3910 1 0.000635 0.00672611 -0.00635 -0.00486 6.19774e-17 7.15825e-17 2.16e-11 0 2.9736e-35
3996 1 0.000635 0.00782597 -0.005715 -0.00486 -6.77626e-21 4.76849e-17 2.16e-11 0 5.17148e-36
4081 1 0.000635 0.00892582 -0.00635 -0.00486 -3.24166e-09 -5.61473e-09 -6.58341e-07 8.19891e-12 1.0343e-35
4167 1 0.000635 0.0100257 -0.005715 -0.00486 -8.87338e-09 -1.53691e-08 -1.70119e-06 5.50173e-11 6.85221e-35
4252 1 0.000635 0.0111255 -0.00635 -0.00486 -5.18692e-05 4.36601e-07 -4.81313e-06 2.3258e-10 8.79936e-12
4337 1 0.000635 0.0122244 -0.00571503 -0.0048258 9.48619e-10 -8.48937e-10 -1.77498e-08 2.79286e-10 1.71815e-11
2364 1 0.000635 -0.0130654 -0.00507916 -0.00472879 3.43203e-10 -2.27207e-10 1.27569e-09 4.56572e-11 4.11387e-11
2533 1 0.000635 -0.0108715 -0.00508 -0.00486 -5.06578e-06 -2.94598e-06 -1.29053e-06 3.75835e-11 1.53943e-13
2704 1 0.000635 -0.00867182 -0.00508 -0.00486 -6.19774e-17 -2.3845e-17 2.16e-11 0 1.42216e-35
2875 1 0.000635 -0.00647211 -0.00508 -0.00486 -1.44605e-16 -2.38442e-17 2.16e-11 0 3.49075e-35
3047 1 0.000635 -0.00427241 -0.00508 -0.00486 -1.03287e-16 -2.38433e-17 2.16e-11 1.57928e-24 2.45645e-35
3220 1 0.000635 -0.0020727 -0.00508 -0.00486 -3.38813e-21 -2.38442e-17 2.16e-11 0 2.58574e-36
3393 1 0.000635 0.000127 -0.00508 -0.00486 0 -2.38442e-17 2.16e-11 0 2.58574e-36
3566 1 0.000635 0.0023267 -0.00508 -0.00486 -3.38813e-21 -2.38459e-17 2.16e-11 0 2.58574e-36
3739 1 0.000635 0.00452641 -0.00508 -0.00486 4.13081e-17 -2.38433e-17 2.16e-11 5.26426e-25 2.84431e-35
3911 1 0.000635 0.00672611 -0.00508 -0.00486 6.19859e-17 -2.38442e-17 2.16e-11 0 1.42216e-35
4082 1 0.000635 0.00892582 -0.00508 -0.00486 -8.47033e-21 -2.3845e-17 2.16e-11 0 2.58574e-36
4253 1 0.000635 0.0111255 -0.00508 -0.00486 -1.95822e-05 1.12485e-05 -3.90426e-06 1.4737e-10 2.33863e-12
4422 1 0.000635 0.0133201 -0.0050785 -0.00474811 2.12884e-10 -6.91976e-12 -5.27829e-09 3.23018e-10 1.17043e-11
2365 1 0.000635 -0.0130626 -0.00380971 -0.00471814 6.51771e-10 -9.34859e-11 5.20948e-09 6.48017e-11 1.77041e-11
2449 1 0.000635 -0.0119714 -0.004445 -0.00486 -9.1178e-05 -3.72586e-05 1.65222e-05 6.04986e-11 3.04859e-11
2534 1 0.000635 -0.0108715 -0.00381 -0.00486 -2.9969e-08 -1.83676e-08 -2.41419e-06 5.53715e-11 4.65433e-35
2619 1 0.000635 -0.00977167 -0.004445 -0.00486 -5.42693e-10 9.39971e-10 -2.63033e-07 1.30788e-12 6.01185e-35
2705 1 0.000635 -0.00867182 -0.00381 -0.00486 -8.2623e-17 0 2.16e-11 1.05285e-24 2.06859e-35
2790 1 0.000635 -0.00757197 -0.004445 -0.00486 1.44602e-16 -5.96282e-17 2.16e-11 5.26426e-25 3.74932e-35
2876 1 0.000635 -0.00647211 -0.00381 -0.00486 -1.44605e-16 0 2.16e-11 0 3.23218e-35
2961 1 0.000635 -0.00537226 -0.004445 -0.00486 1.44604e-16 -5.9629e-17 2.16e-11 5.26426e-25 3.74932e-35
3048 1 0.000635 -0.00427241 -0.00381 -0.00486 -1.03291e-16 0 2.16e-11 0 1.68073e-35
3134 1 0.000635 -0.00317256 -0.004445 -0.00486 3.09963e-17 -5.36693e-17 2.16e-11 1.57928e-24 8.40366e-36
3221 1 0.000635 -0.0020727 -0.00381 -0.00486 -6.77626e-21 0 2.16e-11 2.10571e-24 0
3307 1 0.000635 -0.000972852 -0.004445 -0.00486 0 -4.77053e-17 2.16e-11 1.05285e-24 5.17148e-36
3394 1 0.000635 0.000127 -0.00381 -0.00486 0 0 2.16e-11 1.05285e-24 0
3480 1 0.000635 0.00122685 -0.004445 -0.00486 0 -4.77053e-17 2.16e-11 1.05285e-24 5.17148e-36
3567 1 0.000635 0.0023267 -0.00381 -0.00486 0 0 2.16e-11 2.10571e-24 0
3653 1 0.000635 0.00342656 -0.004445 -0.00486 3.09811e-17 -5.36701e-17 2.16e-11 1.05285e-24 8.40366e-36
3740 1 0.000635 0.00452641 -0.00381 -0.00486 4.13217e-17 7.70372e-34 2.16e-11 0 1.29287e-35
3826 1 0.000635 0.00562626 -0.004445 -0.00486 -1.44597e-16 -5.9629e-17 2.16e-11 5.26426e-25 3.74932e-35
3912 1 0.000635 0.00672611 -0.00381 -0.00486 8.26298e-17 0 2.16e-11 1.05285e-24 2.06859e-35
3997 1 0.000635 0.00782597 -0.004445 -0.00486 -3.38813e-21 -4.77061e-17 2.16e-11 1.05285e-24 5.17148e-36
4083 1 0.000635 0.00892582 -0.00381 -0.00486 -6.77626e-21 0 2.16e-11 1.05285e-24 0
4168 1 0.000635 0.0100257 -0.004445 -0.00486 2.36835e-09 4.1021e-09 -3.01693e-07 1.72102e-12 6.01185e-35
4254 1 0.000635 0.0111255 -0.00381 -0.00486 1.31868e-08 -3.52234e-09 -1.73591e-06 2.90637e-11 4.65433e-35
4338 1 0.000635 0.0122254 -0.004445 -0.00486 3.49483e-05 7.10005e-06 1.5565e-06 2.72392e-10 1.76269e-11
4423 1 0.000635 0.0133236 -0.00380925 -0.00478774 1.80124e-09 -3.4568e-10 -1.93865e-08 1.78846e-10 3.36148e-11
2366 1 0.000635 -0.0130622 -0.00253987 -0.0047173 1.80749e-10 -3.05937e-11 2.55422e-09 6.71436e-11 4.51831e-12
2450 1 0.000635 -0.0119714 -0.003175 -0.00486 -3.08606e-05 3.34536e-08 8.11313e-06 6.5731e-11 2.97816e-12
2535 1 0.000635 -0.0108715 -0.00254 -0.00486 -3.76721e-08 -3.18505e-09 -2.49852e-06 5.9225e-11 6.33506e-35
2620 1 0.000635 -0.00977167 -0.003175 -0.00486 -1.3427e-16 4.1748e-17 2.16e-11 5.26426e-25 5.81792e-35
2706 1 0.000635 -0.00867182 -0.00254 -0.00486 -7.2301e-17 -5.97417e-18 2.16e-11 0 1.61609e-35
2791 1 0.000635 -0.00757197 -0.003175 -0.00486 1.44602e-16 4.77053e-17 2.16e-11 5.26426e-25 3.55539e-35
2877 1 0.000635 -0.00647211 -0.00254 -0.00486 -1.44605e-16 -1.19365e-17 2.16e-11 0 3.23218e-35
2962 1 0.000635 -0.00537226 -0.003175 -0.00486 1.44604e-16 4.7707e-17 2.16e-11 0 3.55539e-35
3049 1 0.000635 -0.00427241 -0.00254 -0.00486 -1.03284e-16 -1.19373e-17 2.16e-11 5.26426e-25 1.93931e-35
3135 1 0.000635 -0.00317256 -0.003175 -0.00486 3.09963e-17 4.17472e-17 2.16e-11 1.05285e-24 6.46435e-36
3222 1 0.000635 -0.0020727 -0.00254 -0.00486 0 -1.43996e-20 2.16e-11 0 0
3308 1 0.000635 -0.000972852 -0.003175 -0.00486 0 3.57823e-17 2.16e-11 1.05285e-24 3.23218e-36
3395 1 0.000635 0.000127 -0.00254 -0.00486 0 -1.35525e-20 2.16e-11 0 0
3481 1 0.000635 0.00122685 -0.003175 -0.00486 0 3.57823e-17 2.16e-11 1.05285e-24 3.23218e-36
3568 1 0.000635 0.0023267 -0.00254 -0.00486 -6.77626e-21 -1.35525e-20 2.16e-11 0 0
3654 1 0.000635 0.00342656 -0.003175 -0.00486 3.09777e-17 4.17463e-17 2.16e-11 1.05285e-24 6.46435e-36
3741 1 0.000635 0.00452641 -0.00254 -0.00486 4.13115e-17 -1.19382e-17 2.16e-11 5.26426e-25 1.93931e-35
3827 1 0.000635 0.00562626 -0.003175 -0.00486 -1.44595e-16 4.77053e-17 2.16e-11 5.26426e-25 3.55539e-35
3913 1 0.000635 0.00672611 -0.00254 -0.00486 7.23095e-17 -5.97502e-18 2.16e-11 0 1.61609e-35
3998 1 0.000635 0.00782597 -0.003175 -0.00486 0 3.57823e-17 2.16e-11 1.05285e-24 3.23218e-36
4084 1 0.000635 0.00892582 -0.00254 -0.00486 -8.47033e-21 -1.27055e-20 2.16e-11 0 0
4169 1 0.000635 0.0100257 -0.003175 -0.00486 1.3427e-16 4.1748e-17 2.16e-11 5.26426e-25 5.81792e-35
4255 1 0.000635 0.0111255 -0.00254 -0.00486 9.97801e-09 -1.45101e-08 -1.48396e-06 2.12553e-11 6.33506e-35
4339 1 0.000635 0.0122254 -0.003175 -0.00486 4.30639e-05 1.20433e-05 4.53517e-06 3.32377e-11 6.96225e-12
4424 1 0.000635 0.0133225 -0.00253959 -0.00477504 -2.97171e-11 -1.8848e-10 -2.85371e-10 3.82506e-11 1.52797e-11
2367 1 0.000635 -0.0130624 -0.00126995 -0.0047185 4.39669e-09 7.94695e-12 3.08038e-08 6.73559e-11 2.95536e-12
2451 1 0.000635 -0.0119714 -0.001905 -0.00486 -2.12657e-05 1.28865e-06 6.9619e-06 6.62467e-11 1.43623e-12
2536 1 0.000635 -0.0108715 -0.00127 -0.00486 -3.87987e-08 -2.43397e-10 -2.50231e-06 5.94104e-11 6.33506e-35
2621 1 0.000635 -0.00977167 -0.001905 -0.00486 -1.44592e-16 -1.19229e-17 2.16e-11 5.26426e-25 6.39971e-35
2707 1 0.000635 -0.00867182 -0.00127 -0.00486 -7.2301e-17 5.96909e-18 2.16e-11 5.26426e-25 1.61609e-35
2792 1 0.000635 -0.00757197 -0.001905 -0.00486 1.44605e-16 -1.19229e-17 2.16e-11 0 3.29682e-35
2878 1 0.000635 -0.00647211 -0.00127 -0.00486 -1.44605e-16 1.19331e-17 2.16e-11 0 3.23218e-35
2963 1 0.000635 -0.00537226 -0.001905 -0.00486 1.44602e-16 -1.19246e-17 2.16e-11 0 3.29682e-35
3050 1 0.000635 -0.00427241 -0.00127 -0.00486 -1.13613e-16 5.96993e-18 2.16e-11 0 2.13324e-35
3136 1 0.000635 -0.00317256 -0.001905 -0.00486 4.13081e-17 -1.19229e-17 2.16e-11 0 5.81792e-36
3223 1 0.000635 -0.0020727 -0.00127 -0.00486 0 7.6233e-21 2.16e-11 0 0
3309 1 0.000635 -0.000972852 -0.001905 -0.00486 0 -1.19229e-17 2.16e-11 0 6.46435e-37
3396 1 0.000635 0.000127 -0.00127 -0.00486 0 6.77626e-21 2.16e-11 0 0
3482 1 0.000635 0.00122685 -0.001905 -0.00486 0 -1.19229e-17 2.16e-11 0 6.46435e-37
3569 1 0.000635 0.0023267 -0.00127 -0.00486 -6.77626e-21 6.77626e-21 2.16e-11 0 0
3655 1 0.000635 0.00342656 -0.001905 -0.00486 2.06608e-17 -1.19229e-17 2.16e-11 0 1.93931e-36
3742 1 0.000635 0.00452641 -0.00127 -0.00486 4.13149e-17 1.19331e-17 2.16e-11 5.26426e-25 1.93931e-35
3828 1 0.000635 0.00562626 -0.001905 -0.00486 -1.44599e-16 -1.19229e-17 2.16e-11 0 3.29682e-35
3914 1 0.000635 0.00672611 -0.00127 -0.00486 7.23078e-17 5.96909e-18 2.16e-11 5.26426e-25 1.61609e-35
3999 1 0.000635 0.00782597 -0.001905 -0.00486 -6.77626e-21 -1.19229e-17 2.16e-11 5.26426e-25 6.46435e-37
4085 1 0.000635 0.00892582 -0.00127 -0.00486 -6.77626e-21 6.77626e-21 2.16e-11 0 0
4170 1 0.000635 0.0100257 -0.001905 -0.00486 1.44599e-16 -1.19229e-17 2.16e-11 0 6.39971e-35
4256 1 0.000635 0.0111255 -0.00127 -0.00486 1.38984e-08 -8.5161e-09 -1.62568e-06 2.51679e-11 6.33506e-35
4340 1 0.000635 0.0122254 -0.001905 -0.00486 2.86413e-05 2.18099e-06 5.01371e-06 2.75092e-11 2.55951e-12
4425 1 0.000635 0.0133213 -0.00126984 -0.00476396 1.39397e-10 -7.46516e-11 -1.42889e-09 3.15795e-11 4.91891e-12
2452 1 0.000635 -0.0119714 -0.000635 -0.00486 -1.96253e-05 4.48952e-07 6.64291e-06 6.65641e-11 1.21257e-12
2622 1 0.000635 -0.00977167 -0.000635 -0.00486 -1.44599e-16 -8.47033e-21 2.16e-11 0 6.33506e-35
2793 1 0.000635 -0.00757197 -0.000635 -0.00486 1.44604e-16 -1.19339e-17 2.16e-11 5.26426e-25 3.23218e-35
2964 1 0.000635 -0.00537226 -0.000635 -0.00486 1.44604e-16 -1.19365e-17 2.16e-11 0 3.23218e-35
3137 1 0.000635 -0.00317256 -0.000635 -0.00486 4.13183e-17 -8.47033e-21 2.16e-11 0 5.17148e-36
3310 1 0.000635 -0.000972852 -0.000635 -0.00486 0 -8.47033e-21 2.16e-11 0 0
3483 1 0.000635 0.00122685 -0.000635 -0.00486 0 -8.47033e-21 2.16e-11 0 0
3656 1 0.000635 0.00342656 -0.000635 -0.00486 3.09811e-17 -5.97078e-18 2.16e-11 5.26426e-25 3.23218e-36
3829 1 0.000635 0.00562626 -0.000635 -0.00486 -1.44597e-16 -1.19339e-17 2.16e-11 5.26426e-25 3.23218e-35
4000 1 0.000635 0.00782597 -0.000635 -0.00486 0 -8.47033e-21 2.16e-11 0 0
4171 1 0.000635 0.0100257 -0.000635 -0.00486 1.44599e-16 -8.47033e-21 2.16e-11 0 6.33506e-35
4341 1 0.000635 0.0122254 -0.000635 -0.00486 1.8318e-05 4.0797e-07 4.55803e-06 3.08564e-11 1.03787e-12
2368 1 0.000635 -0.0130624 1.15532e-15 -0.00471892 8.40545e-10 3.75117e-14 7.56821e-09 6.73738e-11 2.69089e-12
2453 1 0.000635 -0.0119714 0.000635 -0.00486 -1.96253e-05 -4.48952e-07 6.64291e-06 6.65641e-11 1.21257e-12
2537 1 0.000635 -0.0108715 0 -0.00486 -3.87629e-08 -1.07991e-16 -2.49547e-06 5.90832e-11 6.33506e-35
2623 1 0.000635 -0.00977167 0.000635 -0.00486 -1.44599e-16 -3.38813e-21 2.16e-11 0 6.33506e-35
2708 1 0.000635 -0.00867182 0 -0.00486 -8.26247e-17 5.92923e-21 2.16e-11 0 2.06859e-35
2794 1 0.000635 -0.00757197 0.000635 -0.00486 1.44602e-16 -3.38813e-21 2.16e-11 0 3.23218e-35
2879 1 0.000635 -0.00647211 0 -0.00486 -1.44605e-16 5.0822e-21 2.16e-11 0 3.23218e-35
2965 1 0.000635 -0.00537226 0.000635 -0.00486 1.44602e-16 -3.38813e-21 2.16e-11 0 3.23218e-35
3051 1 0.000635 -0.00427241 0 -0.00486 -1.03282e-16 5.92923e-21 2.16e-11 0 1.68073e-35
3138 1 0.000635 -0.00317256 0.000635 -0.00486 4.13149e-17 -3.38813e-21 2.16e-11 0 5.17148e-36
3224 1 0.000635 -0.0020727 0 -0.00486 0 6.77626e-21 2.16e-11 0 0
3311 1 0.000635 -0.000972852 0.000635 -0.00486 0 -3.38813e-21 2.16e-11 0 0
3397 1 0.000635 0.000127 0 -0.00486 0 6.77626e-21 2.16e-11 0 0
3484 1 0.000635 0.00122685 0.000635 -0.00486 0 -3.38813e-21 2.16e-11 0 0
3570 1 0.000635 0.0023267 0 -0.00486 -3.38813e-21 5.0822e-21 2.16e-11 5.26426e-25 0
3657 1 0.000635 0.00342656 0.000635 -0.00486 2.06574e-17 -3.38813e-21 2.16e-11 0 1.29287e-36
3743 1 0.000635 0.00452641 0 -0.00486 4.13132e-17 5.92923e-21 2.16e-11 0 1.29287e-35
3830 1 0.000635 0.00562626 0.000635 -0.00486 -1.44595e-16 -3.38813e-21 2.16e-11 0 3.23218e-35
3915 1 0.000635 0.00672611 0 -0.00486 8.26315e-17 5.92923e-21 2.16e-11 0 2.06859e-35
4001 1 0.000635 0.00782597 0.000635 -0.00486 0 -3.38813e-21 2.16e-11 0 0
4086 1 0.000635 0.00892582 0 -0.00486 -6.77626e-21 6.77626e-21 2.16e-11 0 0
4172 1 0.000635 0.0100257 0.000635 -0.00486 1.44599e-16 -3.38813e-21 2.16e-11 0 6.33506e-35
4257 1 0.000635 0.0111255 0 -0.00486 1.5986e-08 5.00766e-18 -1.69375e-06 2.71559e-11 6.33506e-35
4342 1 0.000635 0.0122254 0.000635 -0.00486 1.8318e-05 -4.0797e-07 4.55803e-06 3.08564e-11 1.03787e-12
4426 1 0.000635 0.013321 -2.70333e-16 -0.0047606 -1.40309e-09 3.31094e-14 1.29068e-08 3.32285e-11 2.86354e-12
2369 1 0.000635 -0.0130624 0.00126995 -0.0047185 4.39674e-09 -7.97678e-12 3.08038e-08 6.73559e-11 2.95536e-12
2454 1 0.000635 -0.0119714 0.001905 -0.00486 -2.12657e-05 -1.28865e-06 6.9619e-06 6.62467e-11 1.43623e-12
2538 1 0.000635 -0.0108715 0.00127 -0.00486 -3.87987e-08 2.43397e-10 -2.50231e-06 5.94104e-11 6.33506e-35
2624 1 0.000635 -0.00977167 0.001905 -0.00486 -1.44595e-16 1.19221e-17 2.16e-11 0 6.39971e-35
2709 1 0.000635 -0.00867182 0.00127 -0.00486 -8.26264e-17 0 2.16e-11 0 2.06859e-35
2795 1 0.000635 -0.00757197 0.001905 -0.00486 1.44604e-16 1.19221e-17 2.16e-11 0 3.29682e-35
2880 1 0.000635 -0.00647211 0.00127 -0.00486 -1.44605e-16 0 2.16e-11 0 3.23218e-35
2966 1 0.000635 -0.00537226 0.001905 -0.00486 1.44604e-16 1.19238e-17 2.16e-11 0 3.29682e-35
3052 1 0.000635 -0.00427241 0.00127 -0.00486 -1.0328e-16 0 2.16e-11 0 1.68073e-35
3139 1 0.000635 -0.00317256 0.001905 -0.00486 4.13115e-17 1.19229e-17 2.16e-11 0 5.81792e-36
3225 1 0.000635 -0.0020727 0.00127 -0.00486 0 0 2.16e-11 0 0
3312 1 0.000635 -0.000972852 0.001905 -0.00486 0 1.19212e-17 2.16e-11 0 6.46435e-37
3398 1 0.000635 0.000127 0.00127 -0.00486 0 0 2.16e-11 0 0
3485 1 0.000635 0.00122685 0.001905 -0.00486 0 1.19212e-17 2.16e-11 0 6.46435e-37
3571 1 0.000635 0.0023267 0.00127 -0.00486 -6.77626e-21 0 2.16e-11 0 0
3658 1 0.000635 0.00342656 0.001905 -0.00486 2.06591e-17 1.19221e-17 2.16e-11 0 1.93931e-36
3744 1 0.000635 0.00452641 0.00127 -0.00486 4.13115e-17 0 2.16e-11 0 1.29287e-35
3831 1 0.000635 0.00562626 0.001905 -0.00486 -1.44597e-16 1.19221e-17 2.16e-11 0 3.29682e-35
3916 1 0.000635 0.00672611 0.00127 -0.00486 8.26331e-17 0 2.16e-11 0 2.06859e-35
4002 1 0.000635 0.00782597 0.001905 -0.00486 -3.38813e-21 1.19221e-17 2.16e-11 0 6.46435e-37
4087 1 0.000635 0.00892582 0.00127 -0.00486 -6.77626e-21 0 2.16e-11 0 0
4173 1 0.000635 0.0100257 0.001905 -0.00486 1.44599e-16 1.19212e-17 2.16e-11 0 6.39971e-35
4258 1 0.000635 0.0111255 0.00127 -0.00486 1.38984e-08 8.5161e-09 -1.62568e-06 2.51679e-11 6.33506e-35
4343 1 0.000635 0.0122254 0.001905 -0.00486 2.86413e-05 -2.18099e-06 5.01371e-06 2.75092e-11 2.55951e-12
4427 1 0.000635 0.0133213 0.00126984 -0.00476396 1.39429e-10 7.45287e-11 -1.42888e-09 3.15795e-11 4.91891e-12
2370 1 0.000635 -0.0130622 0.00253987 -0.0047173 1.809e-10 3.05011e-11 2.55423e-09 6.71436e-11 4.51831e-12
2455 1 0.000635 -0.0119714 0.003175 -0.00486 -3.08606e-05 -3.34535e-08 8.11313e-06 6.5731e-11 2.97816e-12
2539 1 0.000635 -0.0108715 0.00254 -0.00486 -3.76721e-08 3.18505e-09 -2.49852e-06 5.9225e-11 6.33506e-35
2625 1 0.000635 -0.00977167 0.003175 -0.00486 -1.3427e-16 -4.1748e-17 2.16e-11 5.26426e-25 5.81792e-35
2710 1 0.000635 -0.00867182 0.00254 -0.00486 -7.2301e-17 5.97417e-18 2.16e-11 0 1.61609e-35
2796 1 0.000635 -0.00757197 0.003175 -0.00486 1.44602e-16 -4.77053e-17 2.16e-11 5.26426e-25 3.55539e-35
2881 1 0.000635 -0.00647211 0.00254 -0.00486 -1.44605e-16 1.19365e-17 2.16e-11 0 3.23218e-35
2967 1 0.000635 -0.00537226 0.003175 -0.00486 1.44604e-16 -4.7707e-17 2.16e-11 0 3.55539e-35
3053 1 0.000635 -0.00427241 0.00254 -0.00486 -1.03284e-16 1.19373e-17 2.16e-11 5.26426e-25 1.93931e-35
3140 1 0.000635 -0.00317256 0.003175 -0.00486 3.09963e-17 -4.17472e-17 2.16e-11 1.05285e-24 6.46435e-36
3226 1 0.000635 -0.0020727 0.00254 -0.00486 0 1.43996e-20 2.16e-11 0 0
3313 1 0.000635 -0.000972852 0.003175 -0.00486 0 -3.57823e-17 2.16e-11 1.05285e-24 3.23218e-36
3399 1 0.000635 0.000127 0.00254 -0.00486 0 1.35525e-20 2.16e-11 0 0
3486 1 0.000635 0.00122685 0.003175 -0.00486 0 -3.57823e-17 2.16e-11 1.05285e-24 3.23218e-36
3572 1 0.000635 0.0023267 0.00254 -0.00486 -6.77626e-21 1.35525e-20 2.16e-11 0 0
3659 1 0.000635 0.00342656 0.003175 -0.00486 3.09777e-17 -4.17463e-17 2.16e-11 1.05285e-24 6.46435e-36
3745 1 0.000635 0.00452641 0.00254 -0.00486 4.13115e-17 1.19382e-17 2.16e-11 5.26426e-25 1.93931e-35
3832 1 0.000635 0.00562626 0.003175 -0.00486 -1.44595e-16 -4.77053e-17 2.16e-11 5.26426e-25 3.55539e-35
3917 1 0.000635 0.00672611 0.00254 -0.00486 7.23095e-17 5.97502e-18 2.16e-11 0 1.61609e-35
4003 1 0.000635 0.00782597 0.003175 -0.00486 0 -3.57823e-17 2.16e-11 1.05285e-24 3.23218e-36
4088 1 0.000635 0.00892582 0.00254 -0.00486 -8.47033e-21 1.27055e-20 2.16e-11 0 0
4174 1 0.000635 0.0100257 0.003175 -0.00486 1.3427e-16 -4.1748e-17 2.16e-11 5.26426e-25 5.81792e-35
4259 1 0.000635 0.0111255 0.00254 -0.00486 9.97801e-09 1.45101e-08 -1.48396e-06 2.12553e-11 6.33506e-35
4344 1 0.000635 0.0122254 0.003175 -0.00486 4.30639e-05 -1.20433e-05 4.53517e-06 3.32377e-11 6.96225e-12
4428 1 0.000635 0.0133225 0.00253959 -0.00477504 -2.96922e-11 1.88587e-10 -2.85331e-10 3.82506e-11 1.52797e-11
2371 1 0.000635 -0.0130626 0.00380971 -0.00471814 6.51821e-10 9.35608e-11 5.20949e-09 6.48017e-11 1.77041e-11
2456 1 0.000635 -0.0119714 0.004445 -0.00486 -9.1178e-05 3.72586e-05 1.65222e-05 6.04986e-11 3.04859e-11
2540 1 0.000635 -0.0108715 0.00381 -0.00486 -2.9969e-08 1.83676e-08 -2.41419e-06 5.53715e-11 4.65433e-35
2626 1 0.000635 -0.00977167 0.004445 -0.00486 -5.42693e-10 -9.39971e-10 -2.63033e-07 1.30788e-12 6.01185e-35
2711 1 0.000635 -0.00867182 0.00381 -0.00486 -8.2623e-17 0 2.16e-11 1.05285e-24 2.06859e-35
2797 1 0.000635 -0.00757197 0.004445 -0.00486 1.44602e-16 5.96282e-17 2.16e-11 5.26426e-25 3.74932e-35
2882 1 0.000635 -0.00647211 0.00381 -0.00486 -1.44605e-16 0 2.16e-11 0 3.23218e-35
2968 1 0.000635 -0.00537226 0.004445 -0.00486 1.44604e-16 5.9629e-17 2.16e-11 5.26426e-25 3.74932e-35
3054 1 0.000635 -0.00427241 0.00381 -0.00486 -1.03291e-16 0 2.16e-11 0 1.68073e-35
3141 1 0.000635 -0.00317256 0.004445 -0.00486 3.09963e-17 5.36693e-17 2.16e-11 1.57928e-24 8.40366e-36
3227 1 0.000635 -0.0020727 0.00381 -0.00486 -6.77626e-21 0 2.16e-11 2.10571e-24 0
3314 1 0.000635 -0.000972852 0.004445 -0.00486 0 4.77053e-17 2.16e-11 1.05285e-24 5.17148e-36
3400 1 0.000635 0.000127 0.00381 -0.00486 0 0 2.16e-11 1.05285e-24 0
3487 1 0.000635 0.00122685 0.004445 -0.00486 0 4.77053e-17 2.16e-11 1.05285e-24 5.17148e-36
3573 1 0.000635 0.0023267 0.00381 -0.00486 0 0 2.16e-11 2.10571e-24 0
3660 1 0.000635 0.00342656 0.004445 -0.00486 3.09811e-17 5.36701e-17 2.16e-11 1.05285e-24 8.40366e-36
3746 1 0.000635 0.00452641 0.00381 -0.00486 4.13217e-17 0 2.16e-11 0 1.29287e-35