ITEM: TIMESTEP
910000
ITEM: NUMBER OF ATOMS
6793
ITEM: BOX BOUNDS ff ff ff
-8.9999999999999997e-02 8.9999999999999997e-02
-8.9999999999999997e-02 8.9999999999999997e-02
-4.0000000000000001e-02 4.0000000000000001e-02
ITEM: ATOMS id type radius x y z fx fy fz c_bendingE c_stretchingE
3385 1 0.000635 0.000122537 -0.0152165 -0.00949681 -5.54534e-11 1.72859e-10 5.69649e-10 1.23421e-09 5.40507e-11
3471 1 0.000635 0.00120539 -0.0158103 -0.00920119 1.28497e-11 -1.05812e-10 -3.46988e-10 1.31865e-09 1.0563e-10
3558 1 0.000635 0.00229868 -0.0151651 -0.00919884 -2.66248e-10 3.75883e-10 1.35553e-09 8.55509e-11 7.26995e-11
3213 1 0.000635 -0.00207093 -0.0139553 -0.0096442 7.4996e-13 4.3845e-11 2.95913e-10 1.97109e-09 2.55378e-10
3299 1 0.000635 -0.000974118 -0.0145918 -0.00962582 -7.61276e-12 3.74192e-11 2.56076e-10 1.8826e-09 8.25896e-11
3386 1 0.000635 0.000126344 -0.0139669 -0.00972849 6.80096e-12 -8.41275e-11 -7.84994e-10 1.43292e-09 2.81716e-11
3472 1 0.000635 0.00121998 -0.0145803 -0.00952486 -5.13505e-11 5.74237e-11 1.28095e-10 6.17963e-10 9.72731e-11
3559 1 0.000635 0.00231491 -0.0139377 -0.00953062 -6.62472e-11 8.26612e-11 3.08507e-10 2.01523e-10 2.27429e-10
3645 1 0.000635 0.00339534 -0.0145266 -0.00921621 -4.09596e-11 -6.65829e-11 -1.02121e-10 3.97522e-11 3.17434e-11
3732 1 0.000635 0.00450095 -0.0139098 -0.00930344 -7.28826e-11 1.91778e-11 3.65571e-10 4.99744e-11 3.22169e-11
3041 1 0.000635 -0.0042651 -0.0126841 -0.00963411 1.1279e-10 1.60924e-10 1.01384e-09 1.15721e-09 9.03249e-11
3127 1 0.000635 -0.00316716 -0.0133188 -0.0096381 6.27165e-11 1.11776e-10 6.70433e-10 1.41e-09 2.34673e-10
3214 1 0.000635 -0.0020727 -0.0127 -0.009828 -8.13281e-05 2.91905e-05 -2.46597e-06 1.66444e-09 5.62868e-11
3300 1 0.000635 -0.000973219 -0.013335 -0.00980575 -2.42979e-12 1.25291e-11 1.72594e-10 1.23495e-09 2.97899e-11
3387 1 0.000635 0.000127 -0.0127 -0.009828 -2.73794e-05 -5.61185e-05 2.75048e-06 1.29312e-10 1.22006e-11
3473 1 0.000635 0.00122617 -0.0133338 -0.0097746 -7.62668e-12 -1.60019e-13 -1.11891e-10 1.46012e-10 6.30921e-11
3560 1 0.000635 0.0023267 -0.0127 -0.009828 4.99422e-05 -0.0002475 7.42683e-05 2.28886e-10 2.07159e-10
3646 1 0.000635 0.00341575 -0.0133102 -0.00958258 -8.0217e-12 -5.76149e-11 -1.23019e-10 2.08331e-10 1.40599e-10
3733 1 0.000635 0.00451954 -0.0126856 -0.00964033 -1.42344e-10 3.0543e-10 1.62012e-09 1.50828e-10 2.12827e-11
3819 1 0.000635 0.00560721 -0.0132934 -0.00939115 -4.20725e-11 -2.92394e-11 1.81063e-10 4.59082e-11 1.45071e-11
3905 1 0.000635 0.00671163 -0.0126707 -0.00945838 -1.48981e-10 2.47965e-10 1.39728e-09 6.70035e-11 9.68112e-12
3990 1 0.000635 0.00779998 -0.0132823 -0.00922474 -1.14122e-10 9.82629e-11 6.15745e-10 6.76335e-10 9.07386e-11
4076 1 0.000635 0.00889851 -0.0126458 -0.00924239 -6.01516e-11 1.43733e-11 2.46135e-10 1.29058e-09 1.3695e-11
2870 1 0.000635 -0.00646328 -0.0114161 -0.00963971 8.91174e-11 3.56238e-11 4.44966e-10 9.06285e-10 3.63132e-11
2955 1 0.000635 -0.00536387 -0.0120498 -0.00963475 1.63973e-10 1.65589e-10 1.09985e-09 1.00067e-09 4.08265e-11
3042 1 0.000635 -0.00427241 -0.01143 -0.009828 4.21286e-07 5.45269e-05 -1.02497e-05 8.42078e-10 1.3953e-11
3128 1 0.000635 -0.00317256 -0.012065 -0.009828 -3.14083e-05 8.20529e-05 -1.28028e-05 1.08748e-09 5.21461e-11
3215 1 0.000635 -0.0020727 -0.01143 -0.009828 2.90217e-08 -7.74087e-08 -3.33175e-06 1.05706e-10 5.17148e-36
3301 1 0.000635 -0.000972852 -0.012065 -0.009828 4.15638e-08 -1.20411e-05 -2.93491e-06 9.50987e-11 6.47086e-13
3388 1 0.000635 0.000127 -0.01143 -0.009828 5.78395e-09 0 -8.77069e-07 1.45607e-11 5.17148e-36
3474 1 0.000635 0.00122685 -0.012065 -0.009828 -3.1907e-08 2.54938e-06 -3.26532e-06 1.51762e-10 3.3854e-14
3561 1 0.000635 0.0023267 -0.01143 -0.009828 6.41288e-08 -6.87213e-08 -4.2706e-06 1.83515e-10 5.17148e-36
3647 1 0.000635 0.00342656 -0.012065 -0.009828 3.98121e-05 2.13098e-05 3.7294e-06 1.74657e-10 1.85761e-11
3734 1 0.000635 0.00452641 -0.01143 -0.009828 1.85402e-05 1.1074e-05 3.50889e-06 1.27342e-10 4.24492e-12
3820 1 0.000635 0.00562138 -0.0120555 -0.00967407 -1.28254e-11 -3.67456e-11 -4.44987e-11 1.14492e-10 5.08662e-12
3906 1 0.000635 0.00672257 -0.0114237 -0.0097001 -7.59561e-11 1.13886e-10 8.11102e-10 1.01712e-10 2.8862e-12
3991 1 0.000635 0.00781545 -0.0120463 -0.00952433 -1.15728e-10 1.46396e-10 8.2256e-10 9.98489e-10 7.55375e-11
4077 1 0.000635 0.00891479 -0.0114098 -0.00953211 -7.35984e-11 2.72903e-11 2.36173e-10 9.41671e-10 8.66056e-12
2785 1 0.000635 -0.00756305 -0.0107826 -0.00964745 4.30464e-11 3.08762e-11 3.22262e-10 8.48754e-10 5.59104e-11
2956 1 0.000635 -0.00537226 -0.010795 -0.009828 2.49925e-05 3.34517e-05 -8.41849e-06 7.13885e-10 5.91045e-12
3129 1 0.000635 -0.00317256 -0.010795 -0.009828 -8.13856e-09 -6.84151e-08 -3.38164e-06 1.08846e-10 6.46435e-36
3302 1 0.000635 -0.000972852 -0.010795 -0.009828 3.23322e-09 -1.69407e-21 -1.96174e-07 7.27672e-13 5.17148e-36
3475 1 0.000635 0.00122685 -0.010795 -0.009828 5.98969e-09 0 -4.70941e-07 4.19414e-12 5.17148e-36
3648 1 0.000635 0.00342656 -0.010795 -0.009828 6.97792e-08 -4.4312e-08 -3.52298e-06 1.24653e-10 1.0343e-35
3821 1 0.000635 0.00562626 -0.010795 -0.009828 1.08399e-05 1.72815e-06 3.69344e-06 8.78933e-11 1.00475e-12
3992 1 0.000635 0.0078238 -0.0107918 -0.00973014 2.80629e-11 -1.36553e-10 -1.06669e-09 5.0923e-10 4.55028e-11
4163 1 0.000635 0.00996839 -0.0107379 -0.00930607 4.09012e-11 -4.49096e-11 1.32376e-10 1.07659e-09 2.29861e-11
2445 1 0.000635 -0.0119183 -0.00945956 -0.00925335 -1.14479e-10 -9.59779e-11 -3.39555e-10 1.37013e-09 2.85723e-10
2529 1 0.000635 -0.0108065 -0.010064 -0.00919149 -1.19373e-10 -2.29307e-10 -5.59353e-10 1.00193e-09 2.78362e-10
2615 1 0.000635 -0.00976232 -0.00951495 -0.0096582 1.5051e-12 -4.98997e-11 -8.36632e-11 8.94311e-10 1.28164e-10
2700 1 0.000635 -0.00866288 -0.0101491 -0.00965521 7.6307e-11 5.66583e-11 4.70894e-10 8.28797e-10 8.80828e-11
2786 1 0.000635 -0.00757197 -0.009525 -0.009828 6.38003e-05 5.2383e-06 -6.3057e-06 5.60707e-10 2.9572e-11
2871 1 0.000635 -0.00647211 -0.01016 -0.009828 4.56481e-05 1.77703e-05 -7.18742e-06 6.32098e-10 1.33672e-11
2957 1 0.000635 -0.00537226 -0.009525 -0.009828 -4.6411e-08 -4.77685e-08 -3.29839e-06 1.03645e-10 3.74932e-35
3043 1 0.000635 -0.00427241 -0.01016 -0.009828 -3.07799e-08 -5.83973e-08 -3.37262e-06 1.08285e-10 2.71503e-35
3130 1 0.000635 -0.00317256 -0.009525 -0.009828 2.0671e-17 0 2.16e-11 1.05285e-24 6.46435e-36
3216 1 0.000635 -0.0020727 -0.01016 -0.009828 -6.77626e-21 0 2.16e-11 0 5.17148e-36
3303 1 0.000635 -0.000972852 -0.009525 -0.009828 0 0 2.16e-11 0 5.17148e-36
3389 1 0.000635 0.000127 -0.01016 -0.009828 0 0 2.16e-11 0 5.17148e-36
3476 1 0.000635 0.00122685 -0.009525 -0.009828 0 0 2.16e-11 0 5.17148e-36
3562 1 0.000635 0.0023267 -0.01016 -0.009828 0 0 2.16e-11 0 5.17148e-36
3649 1 0.000635 0.00342656 -0.009525 -0.009828 4.13115e-17 0 2.16e-11 0 1.0343e-35
3735 1 0.000635 0.00452641 -0.01016 -0.009828 4.42511e-08 -2.82805e-08 -2.78341e-06 7.62748e-11 3.10289e-35
3822 1 0.000635 0.00562626 -0.009525 -0.009828 3.54136e-08 -1.31808e-08 -2.22057e-06 4.90953e-11 3.74932e-35
3907 1 0.000635 0.00672611 -0.01016 -0.009828 1.34103e-05 -1.53056e-05 4.03987e-06 7.28306e-11 1.36207e-12
3993 1 0.000635 0.00782597 -0.009525 -0.009828 4.14811e-06 -3.18313e-05 2.07716e-06 2.1567e-10 4.03213e-12
4078 1 0.000635 0.00892419 -0.010156 -0.00973365 -1.01176e-10 7.37366e-11 7.76068e-10 9.69839e-10 4.18513e-11
4164 1 0.000635 0.0100141 -0.00951018 -0.00962657 3.88031e-11 -6.26767e-11 -2.62016e-10 8.95791e-10 7.78375e-11
2277 1 0.000635 -0.0141419 -0.00824521 -0.00935875 -1.07096e-10 2.01569e-11 -2.04233e-10 2.10595e-09 8.64247e-11
2361 1 0.000635 -0.0130297 -0.00885246 -0.00930596 -1.0613e-10 -8.64738e-12 -2.28933e-10 2.7089e-09 1.43453e-10
2446 1 0.000635 -0.0119634 -0.00825057 -0.00964162 -2.92023e-11 2.777e-11 1.34686e-10 1.437e-09 1.24018e-11
2530 1 0.000635 -0.0108622 -0.00888239 -0.00965599 -4.71705e-11 -9.10797e-11 -2.33005e-10 1.20965e-09 4.44917e-11
2616 1 0.000635 -0.00977167 -0.008255 -0.009828 -1.42573e-06 -6.58312e-05 1.04043e-05 3.72534e-10 2.69674e-11
2701 1 0.000635 -0.00867182 -0.00889 -0.009828 8.00455e-05 -6.05211e-06 -5.84912e-06 4.75861e-10 5.16519e-11
2787 1 0.000635 -0.00757197 -0.008255 -0.009828 -6.07955e-08 -3.07998e-08 -3.09111e-06 9.0943e-11 4.0079e-35
2872 1 0.000635 -0.00647211 -0.00889 -0.009828 -5.59808e-08 -3.79355e-08 -3.18592e-06 9.67274e-11 3.74932e-35
2958 1 0.000635 -0.00537226 -0.008255 -0.009828 1.44607e-16 -7.15799e-17 2.16e-11 5.26426e-25 4.0079e-35
3044 1 0.000635 -0.00427241 -0.00889 -0.009828 -1.03289e-16 -4.76841e-17 2.16e-11 1.05285e-24 2.71503e-35
3131 1 0.000635 -0.00317256 -0.008255 -0.009828 3.09912e-17 -7.75431e-17 2.16e-11 5.26426e-25 1.87466e-35
3217 1 0.000635 -0.0020727 -0.00889 -0.009828 -3.38813e-21 -4.76866e-17 2.16e-11 0 5.17148e-36
3304 1 0.000635 -0.000972852 -0.008255 -0.009828 0 -7.15833e-17 2.16e-11 0 1.0343e-35
3390 1 0.000635 0.000127 -0.00889 -0.009828 0 -4.76866e-17 2.16e-11 0 5.17148e-36
3477 1 0.000635 0.00122685 -0.008255 -0.009828 0 -7.15833e-17 2.16e-11 0 1.0343e-35
3563 1 0.000635 0.0023267 -0.00889 -0.009828 0 -4.76858e-17 2.16e-11 0 5.17148e-36
3650 1 0.000635 0.00342656 -0.008255 -0.009828 4.13098e-17 -7.15825e-17 2.16e-11 0 1.0343e-35
3736 1 0.000635 0.00452641 -0.00889 -0.009828 4.13115e-17 -4.76841e-17 2.16e-11 0 3.10289e-35
3823 1 0.000635 0.00562626 -0.008255 -0.009828 -1.446e-16 -7.15791e-17 2.16e-11 0 4.0079e-35
3908 1 0.000635 0.00672611 -0.00889 -0.009828 1.9496e-08 -2.03893e-08 -1.95996e-06 3.72332e-11 1.68073e-35
3994 1 0.000635 0.00782597 -0.008255 -0.009828 -1.19722e-08 -5.37511e-08 -2.6411e-06 7.43163e-11 1.0343e-35
4079 1 0.000635 0.00892582 -0.00889 -0.009828 -6.29504e-05 6.39669e-05 -1.51594e-05 5.28416e-10 2.84747e-11
4165 1 0.000635 0.0100257 -0.008255 -0.009828 0.000196048 2.3848e-05 4.63715e-05 7.35786e-10 2.21276e-10
4250 1 0.000635 0.0110583 -0.0088354 -0.00936903 -4.98876e-12 -1.32496e-11 -8.26211e-11 9.40658e-10 3.12838e-11
2278 1 0.000635 -0.0141305 -0.00697688 -0.00933466 -3.69144e-11 -3.18986e-11 7.20707e-11 1.80171e-09 1.38915e-10
2362 1 0.000635 -0.0130625 -0.00761575 -0.00959092 -9.21933e-11 -2.00039e-11 -3.33925e-10 1.35973e-09 4.46935e-11
2447 1 0.000635 -0.0119694 -0.00698455 -0.009741 -7.42719e-11 -1.47496e-11 -4.73313e-10 2.24039e-10 3.43754e-11
2531 1 0.000635 -0.0108712 -0.00761992 -0.00979453 6.6449e-11 5.7445e-11 1.33129e-09 2.75274e-10 4.88909e-12
2617 1 0.000635 -0.00977167 -0.006985 -0.009828 -5.71443e-06 -3.25479e-06 -2.15618e-06 6.78693e-11 1.91289e-13
2702 1 0.000635 -0.00867182 -0.00762 -0.009828 -7.02504e-08 -1.47673e-08 -3.03999e-06 8.78527e-11 2.9736e-35
2788 1 0.000635 -0.00757197 -0.006985 -0.009828 1.44605e-16 -2.38958e-17 2.16e-11 0 4.0079e-35
2873 1 0.000635 -0.00647211 -0.00762 -0.009828 -1.44609e-16 2.38967e-17 2.16e-11 0 4.0079e-35
2959 1 0.000635 -0.00537226 -0.006985 -0.009828 1.44605e-16 -2.38958e-17 2.16e-11 0 4.0079e-35
3045 1 0.000635 -0.00427241 -0.00762 -0.009828 -1.13623e-16 2.98573e-17 2.16e-11 0 2.90896e-35
3132 1 0.000635 -0.00317256 -0.006985 -0.009828 3.09912e-17 -2.98573e-17 2.16e-11 0 1.87466e-35
3218 1 0.000635 -0.0020727 -0.00762 -0.009828 -1.69407e-21 2.38958e-17 2.16e-11 0 1.0343e-35
3305 1 0.000635 -0.000972852 -0.006985 -0.009828 0 -2.38967e-17 2.16e-11 0 1.0343e-35
3391 1 0.000635 0.000127 -0.00762 -0.009828 0 2.38967e-17 2.16e-11 0 1.0343e-35
3478 1 0.000635 0.00122685 -0.006985 -0.009828 0 -2.38967e-17 2.16e-11 0 1.0343e-35
3564 1 0.000635 0.0023267 -0.00762 -0.009828 0 2.38967e-17 2.16e-11 0 1.0343e-35
3651 1 0.000635 0.00342656 -0.006985 -0.009828 4.13081e-17 -2.38967e-17 2.16e-11 0 1.0343e-35
3737 1 0.000635 0.00452641 -0.00762 -0.009828 4.13217e-17 2.38958e-17 2.16e-11 0 2.06859e-35
3824 1 0.000635 0.00562626 -0.006985 -0.009828 -1.44599e-16 -2.3895e-17 2.16e-11 0 4.0079e-35
3909 1 0.000635 0.00672611 -0.00762 -0.009828 6.19757e-17 2.38958e-17 2.16e-11 0 2.9736e-35
3995 1 0.000635 0.00782597 -0.006985 -0.009828 -6.77626e-21 -2.38967e-17 2.16e-11 0 1.0343e-35
4080 1 0.000635 0.00892582 -0.00762 -0.009828 -4.59487e-08 -1.04533e-07 -4.87905e-06 3.33677e-10 1.0343e-35
4166 1 0.000635 0.0100257 -0.006985 -0.009828 -6.46195e-05 3.70658e-05 -1.20719e-05 5.77218e-10 2.57592e-11
4251 1 0.000635 0.0111206 -0.00761485 -0.00971055 -5.74733e-12 5.24991e-12 5.26883e-12 8.88996e-10 3.18922e-10
4336 1 0.000635 0.0121894 -0.00695719 -0.00949992 -9.33886e-11 6.6106e-11 2.45769e-10 1.03812e-09 2.02108e-10
2279 1 0.000635 -0.014107 -0.00570945 -0.00927309 -8.25399e-11 -1.53262e-11 -1.98173e-10 7.9256e-11 8.47685e-11
2363 1 0.000635 -0.0130579 -0.0063465 -0.00959726 -6.02657e-12 -2.34457e-11 1.63496e-10 2.45299e-10 6.9756e-11
2448 1 0.000635 -0.0119707 -0.00571535 -0.00978638 3.66922e-11 2.8003e-11 7.44762e-10 1.34194e-10 5.52217e-11
2532 1 0.000635 -0.0108715 -0.00635 -0.009828 -4.55441e-05 -5.2495e-05 4.27378e-06 7.73929e-11 1.76476e-11
2618 1 0.000635 -0.00977167 -0.005715 -0.009828 -2.57579e-09 4.4614e-09 -7.66604e-07 1.112e-11 6.85221e-35
2703 1 0.000635 -0.00867182 -0.00635 -0.009828 -4.33933e-10 7.51594e-10 -2.95108e-07 1.64631e-12 2.9736e-35
2789 1 0.000635 -0.00757197 -0.005715 -0.009828 1.44602e-16 4.76832e-17 2.16e-11 0 3.74932e-35
2874 1 0.000635 -0.00647211 -0.00635 -0.009828 -1.44609e-16 7.15816e-17 2.16e-11 0 4.0079e-35
2960 1 0.000635 -0.00537226 -0.005715 -0.009828 1.44604e-16 4.76841e-17 2.16e-11 5.26426e-25 3.74932e-35
3046 1 0.000635 -0.00427241 -0.00635 -0.009828 -1.13621e-16 7.75431e-17 2.16e-11 0 2.90896e-35
3133 1 0.000635 -0.00317256 -0.005715 -0.009828 2.0671e-17 4.76858e-17 2.16e-11 5.26426e-25 6.46435e-36
3219 1 0.000635 -0.0020727 -0.00635 -0.009828 -5.0822e-21 7.15842e-17 2.16e-11 0 1.0343e-35
3306 1 0.000635 -0.000972852 -0.005715 -0.009828 0 4.76866e-17 2.16e-11 0 5.17148e-36
3392 1 0.000635 0.000127 -0.00635 -0.009828 0 7.1585e-17 2.16e-11 0 1.0343e-35
3479 1 0.000635 0.00122685 -0.005715 -0.009828 0 4.76866e-17 2.16e-11 0 5.17148e-36
3565 1 0.000635 0.0023267 -0.00635 -0.009828 0 7.15842e-17 2.16e-11 0 1.0343e-35
3652 1 0.000635 0.00342656 -0.005715 -0.009828 4.13098e-17 4.76858e-17 2.16e-11 0 1.0343e-35
3738 1 0.000635 0.00452641 -0.00635 -0.009828 4.13183e-17 7.15816e-17 2.16e-11 0 2.06859e-35
3825 1 0.000635 0.00562626 -0.005715 -0.009828 -1.44597e-16 4.76841e-17 2.16e-11 0 3.74932e-35
3910 1 0.000635 0.00672611 -0.00635 -0.009828 6.19774e-17 7.15825e-17 2.16e-11 0 2.9736e-35
3996 1 0.000635 0.00782597 -0.005715 -0.009828 -6.77626e-21 4.76849e-17 2.16e-11 0 5.17148e-36
4081 1 0.000635 0.00892582 -0.00635 -0.009828 -8.8655e-09 -1.53555e-08 -1.03694e-06 2.03703e-11 1.0343e-35
4167 1 0.000635 0.0100257 -0.005715 -0.009828 -2.68236e-08 -4.64598e-08 -2.8978e-06 1.61495e-10 6.85221e-35
4252 1 0.000635 0.0111255 -0.00635 -0.009828 -0.000175375 -1.79479e-05 -2.87576e-05 8.09366e-10 9.85265e-11
4337 1 0.000635 0.0122227 -0.0057161 -0.00977764 4.31454e-11 -4.37341e-11 -5.23035e-10 1.12198e-09 2.37381e-10
4421 1 0.000635 0.0131998 -0.00625852 -0.0091763 -4.06495e-10 2.66424e-10 4.83186e-10 1.82922e-09 3.38697e-11
2364 1 0.000635 -0.013048 -0.00507702 -0.00958183 -3.10526e-10 2.46433e-11 -1.01983e-09 1.85365e-10 1.61576e-10
2533 1 0.000635 -0.0108715 -0.00508 -0.009828 -1.15e-05 -6.72973e-06 -2.86514e-06 1.50141e-10 7.86909e-13
2704 1 0.000635 -0.00867182 -0.00508 -0.009828 -6.19774e-17 -2.3845e-17 2.16e-11 0 1.42216e-35
2875 1 0.000635 -0.00647211 -0.00508 -0.009828 -1.44605e-16 -2.38442e-17 2.16e-11 0 3.49075e-35
3047 1 0.000635 -0.00427241 -0.00508 -0.009828 -1.03287e-16 -2.38433e-17 2.16e-11 1.57928e-24 2.45645e-35
3220 1 0.000635 -0.0020727 -0.00508 -0.009828 -3.38813e-21 -2.38442e-17 2.16e-11 0 2.58574e-36
3393 1 0.000635 0.000127 -0.00508 -0.009828 0 -2.38442e-17 2.16e-11 0 2.58574e-36
3566 1 0.000635 0.0023267 -0.00508 -0.009828 -3.38813e-21 -2.38459e-17 2.16e-11 0 2.58574e-36
3739 1 0.000635 0.00452641 -0.00508 -0.009828 4.13081e-17 -2.38433e-17 2.16e-11 5.26426e-25 2.84431e-35
3911 1 0.000635 0.00672611 -0.00508 -0.009828 6.19859e-17 -2.38442e-17 2.16e-11 0 1.42216e-35
4082 1 0.000635 0.00892582 -0.00508 -0.009828 -8.47033e-21 -2.3845e-17 2.16e-11 0 2.58574e-36
4253 1 0.000635 0.0111255 -0.00508 -0.009828 -3.55552e-05 2.03461e-05 -8.12856e-06 5.44115e-10 7.73968e-12
4422 1 0.000635 0.0133094 -0.00507815 -0.00963428 -1.64633e-11 3.3857e-12 2.79007e-11 1.43919e-09 7.11773e-11
2280 1 0.000635 -0.0140842 -0.00444217 -0.00921342 -3.0176e-10 1.29598e-11 -8.64799e-10 5.49341e-11 3.79606e-11
2365 1 0.000635 -0.0130363 -0.00380878 -0.0095519 7.20023e-11 -3.9633e-12 2.77418e-10 2.51274e-10 4.38504e-11
2449 1 0.000635 -0.0119714 -0.004445 -0.009828 -0.000153573 -0.000101141 4.67961e-05 2.24606e-10 1.09055e-10
2534 1 0.000635 -0.0108715 -0.00381 -0.009828 -1.15628e-07 -6.27777e-08 -4.54241e-06 1.98016e-10 4.65433e-35
2619 1 0.000635 -0.00977167 -0.004445 -0.009828 -2.90987e-09 5.04004e-09 -3.66987e-07 2.54674e-12 6.01185e-35
2705 1 0.000635 -0.00867182 -0.00381 -0.009828 -8.2623e-17 0 2.16e-11 1.05285e-24 2.06859e-35
2790 1 0.000635 -0.00757197 -0.004445 -0.009828 1.44602e-16 -5.96282e-17 2.16e-11 5.26426e-25 3.74932e-35
2876 1 0.000635 -0.00647211 -0.00381 -0.009828 -1.44605e-16 0 2.16e-11 0 3.23218e-35
2961 1 0.000635 -0.00537226 -0.004445 -0.009828 1.44604e-16 -5.9629e-17 2.16e-11 5.26426e-25 3.74932e-35
3048 1 0.000635 -0.00427241 -0.00381 -0.009828 -1.03291e-16 0 2.16e-11 0 1.68073e-35
3134 1 0.000635 -0.00317256 -0.004445 -0.009828 3.09963e-17 -5.36693e-17 2.16e-11 1.57928e-24 8.40366e-36
3221 1 0.000635 -0.0020727 -0.00381 -0.009828 -6.77626e-21 0 2.16e-11 2.10571e-24 0
3307 1 0.000635 -0.000972852 -0.004445 -0.009828 0 -4.77053e-17 2.16e-11 1.05285e-24 5.17148e-36
3394 1 0.000635 0.000127 -0.00381 -0.009828 0 0 2.16e-11 1.05285e-24 0
3480 1 0.000635 0.00122685 -0.004445 -0.009828 0 -4.77053e-17 2.16e-11 1.05285e-24 5.17148e-36
3567 1 0.000635 0.0023267 -0.00381 -0.009828 0 0 2.16e-11 2.10571e-24 0
3653 1 0.000635 0.00342656 -0.004445 -0.009828 3.09811e-17 -5.36701e-17 2.16e-11 1.05285e-24 8.40366e-36
3740 1 0.000635 0.00452641 -0.00381 -0.009828 4.13217e-17 7.70372e-34 2.16e-11 0 1.29287e-35
3826 1 0.000635 0.00562626 -0.004445 -0.009828 -1.44597e-16 -5.9629e-17 2.16e-11 5.26426e-25 3.74932e-35
3912 1 0.000635 0.00672611 -0.00381 -0.009828 8.26298e-17 0 2.16e-11 1.05285e-24 2.06859e-35
3997 1 0.000635 0.00782597 -0.004445 -0.009828 -3.38813e-21 -4.77061e-17 2.16e-11 1.05285e-24 5.17148e-36
4083 1 0.000635 0.00892582 -0.00381 -0.009828 -6.77626e-21 0 2.16e-11 1.05285e-24 0
4168 1 0.000635 0.0100257 -0.004445 -0.009828 1.009e-08 1.74764e-08 -4.44379e-07 3.74129e-12 6.01185e-35
4254 1 0.000635 0.0111255 -0.00381 -0.009828 6.25694e-08 -1.20321e-08 -3.32425e-06 1.05232e-10 4.65433e-35
4338 1 0.000635 0.0122254 -0.004445 -0.009828 8.80882e-05 -7.88317e-05 1.55641e-05 1.20742e-09 9.77023e-11
4423 1 0.000635 0.0133143 -0.0038088 -0.00966523 -5.52765e-11 -4.46431e-12 2.97326e-10 8.26683e-10 9.06912e-11
4507 1 0.000635 0.0143788 -0.00444194 -0.00938352 1.42319e-11 -1.76206e-11 2.97262e-12 1.37178e-09 1.95065e-11
2281 1 0.000635 -0.0140741 -0.00317343 -0.00918809 -1.89459e-10 5.35253e-12 -4.64451e-10 3.46638e-11 2.16878e-11
2366 1 0.000635 -0.0130379 -0.00253937 -0.00955854 1.06714e-10 -6.50991e-12 3.58365e-10 2.5325e-10 1.0222e-11
2450 1 0.000635 -0.0119714 -0.003175 -0.009828 -2.71456e-06 2.28671e-05 8.48862e-06 2.46516e-10 4.79363e-12
2535 1 0.000635 -0.0108715 -0.00254 -0.009828 -1.45227e-07 -7.49197e-10 -4.78466e-06 2.19731e-10 6.33506e-35
2620 1 0.000635 -0.00977167 -0.003175 -0.009828 -1.3427e-16 4.1748e-17 2.16e-11 5.26426e-25 5.81792e-35
2706 1 0.000635 -0.00867182 -0.00254 -0.009828 -7.2301e-17 -5.97417e-18 2.16e-11 0 1.61609e-35
2791 1 0.000635 -0.00757197 -0.003175 -0.009828 1.44602e-16 4.77053e-17 2.16e-11 5.26426e-25 3.55539e-35
2877 1 0.000635 -0.00647211 -0.00254 -0.009828 -1.44605e-16 -1.19365e-17 2.16e-11 0 3.23218e-35
2962 1 0.000635 -0.00537226 -0.003175 -0.009828 1.44604e-16 4.7707e-17 2.16e-11 0 3.55539e-35
3049 1 0.000635 -0.00427241 -0.00254 -0.009828 -1.03284e-16 -1.19373e-17 2.16e-11 5.26426e-25 1.93931e-35
3135 1 0.000635 -0.00317256 -0.003175 -0.009828 3.09963e-17 4.17472e-17 2.16e-11 1.05285e-24 6.46435e-36
3222 1 0.000635 -0.0020727 -0.00254 -0.009828 0 -1.43996e-20 2.16e-11 0 0
3308 1 0.000635 -0.000972852 -0.003175 -0.009828 0 3.57823e-17 2.16e-11 1.05285e-24 3.23218e-36
3395 1 0.000635 0.000127 -0.00254 -0.009828 0 -1.35525e-20 2.16e-11 0 0
3481 1 0.000635 0.00122685 -0.003175 -0.009828 0 3.57823e-17 2.16e-11 1.05285e-24 3.23218e-36
3568 1 0.000635 0.0023267 -0.00254 -0.009828 -6.77626e-21 -1.35525e-20 2.16e-11 0 0
3654 1 0.000635 0.00342656 -0.003175 -0.009828 3.09777e-17 4.17463e-17 2.16e-11 1.05285e-24 6.46435e-36
3741 1 0.000635 0.00452641 -0.00254 -0.009828 4.13115e-17 -1.19382e-17 2.16e-11 5.26426e-25 1.93931e-35
3827 1 0.000635 0.00562626 -0.003175 -0.009828 -1.44595e-16 4.77053e-17 2.16e-11 5.26426e-25 3.55539e-35
3913 1 0.000635 0.00672611 -0.00254 -0.009828 7.23095e-17 -5.97502e-18 2.16e-11 0 1.61609e-35
3998 1 0.000635 0.00782597 -0.003175 -0.009828 0 3.57823e-17 2.16e-11 1.05285e-24 3.23218e-36
4084 1 0.000635 0.00892582 -0.00254 -0.009828 -8.47033e-21 -1.27055e-20 2.16e-11 0 0
4169 1 0.000635 0.0100257 -0.003175 -0.009828 1.3427e-16 4.1748e-17 2.16e-11 5.26426e-25 5.81792e-35
4255 1 0.000635 0.0111255 -0.00254 -0.009828 5.59026e-08 -2.93188e-08 -3.10077e-06 9.19367e-11 6.33506e-35
4339 1 0.000635 0.0122254 -0.003175 -0.009828 5.37328e-05 8.72281e-06 1.25792e-05 1.24268e-10 9.70733e-12
4424 1 0.000635 0.0133104 -0.00253947 -0.00964465 3.56311e-11 -3.53531e-12 -2.18578e-10 1.39499e-10 1.8808e-11
4508 1 0.000635 0.0143874 -0.0031732 -0.0094159 1.9749e-11 -1.02294e-11 -1.07611e-10 9.93114e-10 1.0299e-10
2282 1 0.000635 -0.0140744 -0.00190417 -0.0091904 3.94055e-10 9.81501e-12 1.06789e-09 3.84362e-11 1.38602e-11
2367 1 0.000635 -0.0130387 -0.00126972 -0.00956161 -4.38072e-11 -2.30773e-12 -1.73227e-10 2.49979e-10 4.94979e-12
2451 1 0.000635 -0.0119714 -0.001905 -0.009828 -5.07311e-06 1.33193e-05 8.94439e-06 2.47368e-10 1.71754e-12
2536 1 0.000635 -0.0108715 -0.00127 -0.009828 -1.42546e-07 -4.85552e-10 -4.72037e-06 2.13727e-10 6.33506e-35
2621 1 0.000635 -0.00977167 -0.001905 -0.009828 -1.44592e-16 -1.19229e-17 2.16e-11 5.26426e-25 6.39971e-35
2707 1 0.000635 -0.00867182 -0.00127 -0.009828 -7.2301e-17 5.96909e-18 2.16e-11 5.26426e-25 1.61609e-35
2792 1 0.000635 -0.00757197 -0.001905 -0.009828 1.44605e-16 -1.19229e-17 2.16e-11 0 3.29682e-35
2878 1 0.000635 -0.00647211 -0.00127 -0.009828 -1.44605e-16 1.19331e-17 2.16e-11 0 3.23218e-35
2963 1 0.000635 -0.00537226 -0.001905 -0.009828 1.44602e-16 -1.19246e-17 2.16e-11 0 3.29682e-35
3050 1 0.000635 -0.00427241 -0.00127 -0.009828 -1.13613e-16 5.96993e-18 2.16e-11 0 2.13324e-35
3136 1 0.000635 -0.00317256 -0.001905 -0.009828 4.13081e-17 -1.19229e-17 2.16e-11 0 5.81792e-36
3223 1 0.000635 -0.0020727 -0.00127 -0.009828 0 7.6233e-21 2.16e-11 0 0
3309 1 0.000635 -0.000972852 -0.001905 -0.009828 0 -1.19229e-17 2.16e-11 0 6.46435e-37
3396 1 0.000635 0.000127 -0.00127 -0.009828 0 6.77626e-21 2.16e-11 0 0
3482 1 0.000635 0.00122685 -0.001905 -0.009828 0 -1.19229e-17 2.16e-11 0 6.46435e-37
3569 1 0.000635 0.0023267 -0.00127 -0.009828 -6.77626e-21 6.77626e-21 2.16e-11 0 0
3655 1 0.000635 0.00342656 -0.001905 -0.009828 2.06608e-17 -1.19229e-17 2.16e-11 0 1.93931e-36
3742 1 0.000635 0.00452641 -0.00127 -0.009828 4.13149e-17 1.19331e-17 2.16e-11 5.26426e-25 1.93931e-35
3828 1 0.000635 0.00562626 -0.001905 -0.009828 -1.44599e-16 -1.19229e-17 2.16e-11 0 3.29682e-35
3914 1 0.000635 0.00672611 -0.00127 -0.009828 7.23078e-17 5.96909e-18 2.16e-11 5.26426e-25 1.61609e-35
3999 1 0.000635 0.00782597 -0.001905 -0.009828 -6.77626e-21 -1.19229e-17 2.16e-11 5.26426e-25 6.46435e-37
4085 1 0.000635 0.00892582 -0.00127 -0.009828 -6.77626e-21 6.77626e-21 2.16e-11 0 0
4170 1 0.000635 0.0100257 -0.001905 -0.009828 1.44599e-16 -1.19229e-17 2.16e-11 0 6.39971e-35
4256 1 0.000635 0.0111255 -0.00127 -0.009828 6.65447e-08 -8.93354e-09 -3.28369e-06 1.02633e-10 6.33506e-35
4340 1 0.000635 0.0122254 -0.001905 -0.009828 2.05706e-05 1.45759e-06 8.96604e-06 1.16952e-10 1.38403e-12
4425 1 0.000635 0.0133091 -0.0012698 -0.0096391 6.43621e-11 -7.57398e-13 -4.11757e-10 1.28504e-10 3.47887e-12
4509 1 0.000635 0.0143785 -0.00190428 -0.00938027 8.5158e-11 9.39928e-12 -5.04955e-10 4.65357e-11 1.49498e-11
2283 1 0.000635 -0.0140752 -0.000634741 -0.00919281 1.48966e-10 5.69478e-12 3.58807e-10 3.88159e-11 1.05636e-11
2368 1 0.000635 -0.0130388 3.52619e-16 -0.00956223 -1.73426e-10 2.68193e-14 -6.13904e-10 2.49628e-10 3.73421e-12
2452 1 0.000635 -0.0119714 -0.000635 -0.009828 -8.20265e-06 3.95057e-06 9.63097e-06 2.46042e-10 3.93969e-13
2622 1 0.000635 -0.00977167 -0.000635 -0.009828 -1.44599e-16 -8.47033e-21 2.16e-11 0 6.33506e-35
2793 1 0.000635 -0.00757197 -0.000635 -0.009828 1.44604e-16 -1.19339e-17 2.16e-11 5.26426e-25 3.23218e-35
2964 1 0.000635 -0.00537226 -0.000635 -0.009828 1.44604e-16 -1.19365e-17 2.16e-11 0 3.23218e-35
3137 1 0.000635 -0.00317256 -0.000635 -0.009828 4.13183e-17 -8.47033e-21 2.16e-11 0 5.17148e-36
3310 1 0.000635 -0.000972852 -0.000635 -0.009828 0 -8.47033e-21 2.16e-11 0 0
3483 1 0.000635 0.00122685 -0.000635 -0.009828 0 -8.47033e-21 2.16e-11 0 0
3656 1 0.000635 0.00342656 -0.000635 -0.009828 3.09811e-17 -5.97078e-18 2.16e-11 5.26426e-25 3.23218e-36
3829 1 0.000635 0.00562626 -0.000635 -0.009828 -1.44597e-16 -1.19339e-17 2.16e-11 5.26426e-25 3.23218e-35
4000 1 0.000635 0.00782597 -0.000635 -0.009828 0 -8.47033e-21 2.16e-11 0 0
4171 1 0.000635 0.0100257 -0.000635 -0.009828 1.44599e-16 -8.47033e-21 2.16e-11 0 6.33506e-35
4341 1 0.000635 0.0122254 -0.000635 -0.009828 6.01607e-06 1.08271e-06 6.3577e-06 1.24424e-10 1.36103e-13
4510 1 0.000635 0.0143743 -0.000634803 -0.00936459 -1.62406e-11 5.06324e-13 -1.2649e-10 2.94796e-11 5.27569e-12
2284 1 0.000635 -0.0140752 0.000634741 -0.00919281 1.48982e-10 -5.70995e-12 3.58805e-10 3.88159e-11 1.05636e-11
2453 1 0.000635 -0.0119714 0.000635 -0.009828 -8.20265e-06 -3.95057e-06 9.63097e-06 2.46042e-10 3.93969e-13
2537 1 0.000635 -0.0108715 0 -0.009828 -1.4141e-07 2.82062e-18 -4.69879e-06 2.11739e-10 6.33506e-35
2623 1 0.000635 -0.00977167 0.000635 -0.009828 -1.44599e-16 -3.38813e-21 2.16e-11 0 6.33506e-35
2708 1 0.000635 -0.00867182 0 -0.009828 -8.26247e-17 5.92923e-21 2.16e-11 0 2.06859e-35
2794 1 0.000635 -0.00757197 0.000635 -0.009828 1.44602e-16 -3.38813e-21 2.16e-11 0 3.23218e-35
2879 1 0.000635 -0.00647211 0 -0.009828 -1.44605e-16 5.0822e-21 2.16e-11 0 3.23218e-35
2965 1 0.000635 -0.00537226 0.000635 -0.009828 1.44602e-16 -3.38813e-21 2.16e-11 0 3.23218e-35
3051 1 0.000635 -0.00427241 0 -0.009828 -1.03282e-16 5.92923e-21 2.16e-11 0 1.68073e-35
3138 1 0.000635 -0.00317256 0.000635 -0.009828 4.13149e-17 -3.38813e-21 2.16e-11 0 5.17148e-36
3224 1 0.000635 -0.0020727 0 -0.009828 0 6.77626e-21 2.16e-11 0 0
3311 1 0.000635 -0.000972852 0.000635 -0.009828 0 -3.38813e-21 2.16e-11 0 0
3397 1 0.000635 0.000127 0 -0.009828 0 6.77626e-21 2.16e-11 0 0
3484 1 0.000635 0.00122685 0.000635 -0.009828 0 -3.38813e-21 2.16e-11 0 0
3570 1 0.000635 0.0023267 0 -0.009828 -3.38813e-21 5.0822e-21 2.16e-11 5.26426e-25 0
3657 1 0.000635 0.00342656 0.000635 -0.009828 2.06574e-17 -3.38813e-21 2.16e-11 0 1.29287e-36
3743 1 0.000635 0.00452641 0 -0.009828 4.13132e-17 5.92923e-21 2.16e-11 0 1.29287e-35
3830 1 0.000635 0.00562626 0.000635 -0.009828 -1.44595e-16 -3.38813e-21 2.16e-11 0 3.23218e-35
3915 1 0.000635 0.00672611 0 -0.009828 8.26315e-17 5.92923e-21 2.16e-11 0 2.06859e-35
4001 1 0.000635 0.00782597 0.000635 -0.009828 0 -3.38813e-21 2.16e-11 0 0
4086 1 0.000635 0.00892582 0 -0.009828 -6.77626e-21 6.77626e-21 2.16e-11 0 0
4172 1 0.000635 0.0100257 0.000635 -0.009828 1.44599e-16 -3.38813e-21 2.16e-11 0 6.33506e-35
4257 1 0.000635 0.0111255 0 -0.009828 6.97639e-08 -3.854e-19 -3.33192e-06 1.05672e-10 6.33506e-35
4342 1 0.000635 0.0122254 0.000635 -0.009828 6.01607e-06 -1.08271e-06 6.3577e-06 1.24424e-10 1.36103e-13
4426 1 0.000635 0.013309 6.83528e-16 -0.00963898 3.35553e-11 2.67241e-14 -2.69578e-10 1.30782e-10 1.54385e-12
4511 1 0.000635 0.0143743 0.000634803 -0.00936459 -1.6421e-11 -6.43072e-13 -1.26538e-10 2.94796e-11 5.27569e-12
2285 1 0.000635 -0.0140744 0.00190417 -0.0091904 3.94e-10 -9.75997e-12 1.06791e-09 3.84362e-11 1.38602e-11
2369 1 0.000635 -0.0130387 0.00126972 -0.00956161 -4.37524e-11 2.28337e-12 -1.73238e-10 2.49979e-10 4.94979e-12
2454 1 0.000635 -0.0119714 0.001905 -0.009828 -5.07311e-06 -1.33193e-05 8.94439e-06 2.47368e-10 1.71754e-12
2538 1 0.000635 -0.0108715 0.00127 -0.009828 -1.42546e-07 4.85552e-10 -4.72037e-06 2.13727e-10 6.33506e-35
2624 1 0.000635 -0.00977167 0.001905 -0.009828 -1.44595e-16 1.19221e-17 2.16e-11 0 6.39971e-35
2709 1 0.000635 -0.00867182 0.00127 -0.009828 -8.26264e-17 0 2.16e-11 0 2.06859e-35
2795 1 0.000635 -0.00757197 0.001905 -0.009828 1.44604e-16 1.19221e-17 2.16e-11 0 3.29682e-35
2880 1 0.000635 -0.00647211 0.00127 -0.009828 -1.44605e-16 0 2.16e-11 0 3.23218e-35
2966 1 0.000635 -0.00537226 0.001905 -0.009828 1.44604e-16 1.19238e-17 2.16e-11 0 3.29682e-35
3052 1 0.000635 -0.00427241 0.00127 -0.009828 -1.0328e-16 0 2.16e-11 0 1.68073e-35
3139 1 0.000635 -0.00317256 0.001905 -0.009828 4.13115e-17 1.19229e-17 2.16e-11 0 5.81792e-36
3225 1 0.000635 -0.0020727 0.00127 -0.009828 0 0 2.16e-11 0 0
3312 1 0.000635 -0.000972852 0.001905 -0.009828 0 1.19212e-17 2.16e-11 0 6.46435e-37
3398 1 0.000635 0.000127 0.00127 -0.009828 0 0 2.16e-11 0 0
3485 1 0.000635 0.00122685 0.001905 -0.009828 0 1.19212e-17 2.16e-11 0 6.46435e-37
3571 1 0.000635 0.0023267 0.00127 -0.009828 -6.77626e-21 0 2.16e-11 0 0
3658 1 0.000635 0.00342656 0.001905 -0.009828 2.06591e-17 1.19221e-17 2.16e-11 0 1.93931e-36
3744 1 0.000635 0.00452641 0.00127 -0.009828 4.13115e-17 0 2.16e-11 0 1.29287e-35
3831 1 0.000635 0.00562626 0.001905 -0.009828 -1.44597e-16 1.19221e-17 2.16e-11 0 3.29682e-35
3916 1 0.000635 0.00672611 0.00127 -0.009828 8.26331e-17 0 2.16e-11 0 2.06859e-35