ITEM: TIMESTEP
430000
ITEM: NUMBER OF ATOMS
6793
ITEM: BOX BOUNDS ff ff ff
-8.9999999999999997e-02 8.9999999999999997e-02
-8.9999999999999997e-02 8.9999999999999997e-02
-4.0000000000000001e-02 4.0000000000000001e-02
ITEM: ATOMS id type radius x y z fx fy fz c_bendingE c_stretchingE
3214 1 0.000635 -0.0020727 -0.0127 -0.004644 -4.22956e-05 1.88711e-05 2.17058e-06 3.43836e-10 2.01287e-11
3300 1 0.000635 -0.000972834 -0.0133348 -0.00462627 3.57618e-10 1.74993e-09 2.97617e-08 2.50797e-10 1.05819e-11
3387 1 0.000635 0.000127 -0.0127 -0.004644 1.82105e-05 -3.3566e-05 1.49748e-06 5.1828e-11 4.42872e-12
3473 1 0.000635 0.00122683 -0.0133344 -0.00460268 -1.74317e-10 -2.53069e-10 -5.42067e-10 3.99875e-11 1.43839e-11
3560 1 0.000635 0.0023267 -0.0127 -0.004644 3.36139e-05 -0.000147287 2.42606e-05 5.77649e-11 7.11123e-11
3042 1 0.000635 -0.00427241 -0.01143 -0.004644 -6.77359e-06 2.8796e-05 -7.91449e-07 1.93972e-10 5.18793e-12
3128 1 0.000635 -0.00317256 -0.012065 -0.004644 -2.24606e-05 4.58918e-05 -2.43665e-06 2.33094e-10 1.88687e-11
3215 1 0.000635 -0.0020727 -0.01143 -0.004644 6.80815e-09 -6.01306e-08 -3.02979e-06 8.72579e-11 5.17148e-36
3301 1 0.000635 -0.000972852 -0.012065 -0.004644 3.16623e-08 6.31058e-06 -2.88696e-06 7.57329e-11 1.86001e-13
3388 1 0.000635 0.000127 -0.01143 -0.004644 -1.35972e-09 -1.69407e-21 -5.54285e-07 5.81e-12 5.17148e-36
3474 1 0.000635 0.00122685 -0.012065 -0.004644 -8.10081e-09 -5.85571e-06 -1.02265e-06 3.53405e-11 1.53903e-13
3561 1 0.000635 0.0023267 -0.01143 -0.004644 4.36079e-09 -2.04266e-08 -2.20663e-06 4.69729e-11 5.17148e-36
3647 1 0.000635 0.00342656 -0.012065 -0.004644 2.26699e-05 -3.9087e-05 8.2931e-06 4.63078e-11 6.30508e-12
3734 1 0.000635 0.00452641 -0.01143 -0.004644 9.8436e-06 -1.88343e-05 4.79318e-06 3.25259e-11 1.39717e-12
2956 1 0.000635 -0.00537226 -0.010795 -0.004644 6.48363e-06 1.89168e-05 -3.97891e-07 1.76748e-10 1.34248e-12
3129 1 0.000635 -0.00317256 -0.010795 -0.004644 -1.69638e-08 -5.24457e-08 -3.02822e-06 8.7198e-11 6.46435e-36
3302 1 0.000635 -0.000972852 -0.010795 -0.004644 -1.64137e-10 0 -1.56399e-07 4.62402e-13 5.17148e-36
3475 1 0.000635 0.00122685 -0.010795 -0.004644 1.9967e-10 -1.69407e-21 -3.64325e-07 2.5093e-12 5.17148e-36
3648 1 0.000635 0.00342656 -0.010795 -0.004644 1.75412e-08 -1.15542e-08 -1.89996e-06 3.54726e-11 1.0343e-35
3821 1 0.000635 0.00562626 -0.010795 -0.004644 4.54384e-06 -1.81638e-05 3.3045e-06 2.28522e-11 1.23127e-12
3992 1 0.000635 0.00782524 -0.0107944 -0.00459615 1.19826e-09 -2.28929e-09 -4.22493e-08 1.27865e-10 1.46014e-11
2786 1 0.000635 -0.00757197 -0.009525 -0.004644 3.12269e-05 8.43995e-06 -9.95055e-07 1.5954e-10 6.36195e-12
2871 1 0.000635 -0.00647211 -0.01016 -0.004644 1.89867e-05 1.29648e-05 -6.02516e-07 1.66677e-10 2.2411e-12
2957 1 0.000635 -0.00537226 -0.009525 -0.004644 -3.40976e-08 -3.48232e-08 -2.78692e-06 7.40744e-11 3.74932e-35
3043 1 0.000635 -0.00427241 -0.01016 -0.004644 -2.78667e-08 -4.39395e-08 -2.9377e-06 8.21675e-11 2.71503e-35
3130 1 0.000635 -0.00317256 -0.009525 -0.004644 2.0671e-17 0 2.16e-11 1.05285e-24 6.46435e-36
3216 1 0.000635 -0.0020727 -0.01016 -0.004644 -6.77626e-21 0 2.16e-11 0 5.17148e-36
3303 1 0.000635 -0.000972852 -0.009525 -0.004644 0 0 2.16e-11 0 5.17148e-36
3389 1 0.000635 0.000127 -0.01016 -0.004644 0 0 2.16e-11 0 5.17148e-36
3476 1 0.000635 0.00122685 -0.009525 -0.004644 0 0 2.16e-11 0 5.17148e-36
3562 1 0.000635 0.0023267 -0.01016 -0.004644 0 0 2.16e-11 0 5.17148e-36
3649 1 0.000635 0.00342656 -0.009525 -0.004644 4.13115e-17 0 2.16e-11 0 1.0343e-35
3735 1 0.000635 0.00452641 -0.01016 -0.004644 1.75855e-08 -4.07541e-09 -1.53164e-06 2.3575e-11 3.10289e-35
3822 1 0.000635 0.00562626 -0.009525 -0.004644 1.3944e-08 -9.29169e-10 -1.18841e-06 1.44843e-11 3.74932e-35
3907 1 0.000635 0.00672611 -0.01016 -0.004644 -4.04924e-07 -2.32088e-05 1.81719e-06 2.86558e-11 2.49429e-12
3993 1 0.000635 0.00782597 -0.009525 -0.004644 -9.14606e-06 -1.35469e-05 -3.28292e-07 8.31776e-11 2.11439e-12
2616 1 0.000635 -0.00977167 -0.008255 -0.004644 2.35466e-05 -1.59352e-05 1.49905e-06 1.38936e-10 8.8363e-12
2701 1 0.000635 -0.00867182 -0.00889 -0.004644 4.19831e-05 3.31378e-06 -1.31946e-06 1.51871e-10 1.27007e-11
2787 1 0.000635 -0.00757197 -0.008255 -0.004644 -3.92689e-08 -1.67398e-08 -2.37695e-06 5.40943e-11 4.0079e-35
2872 1 0.000635 -0.00647211 -0.00889 -0.004644 -3.7566e-08 -2.54375e-08 -2.59255e-06 6.42348e-11 3.74932e-35
2958 1 0.000635 -0.00537226 -0.008255 -0.004644 1.44607e-16 -7.15799e-17 2.16e-11 5.26426e-25 4.0079e-35
3044 1 0.000635 -0.00427241 -0.00889 -0.004644 -1.03289e-16 -4.76841e-17 2.16e-11 1.05285e-24 2.71503e-35
3131 1 0.000635 -0.00317256 -0.008255 -0.004644 3.09912e-17 -7.75431e-17 2.16e-11 5.26426e-25 1.87466e-35
3217 1 0.000635 -0.0020727 -0.00889 -0.004644 -3.38813e-21 -4.76866e-17 2.16e-11 0 5.17148e-36
3304 1 0.000635 -0.000972852 -0.008255 -0.004644 0 -7.15833e-17 2.16e-11 0 1.0343e-35
3390 1 0.000635 0.000127 -0.00889 -0.004644 0 -4.76866e-17 2.16e-11 0 5.17148e-36
3477 1 0.000635 0.00122685 -0.008255 -0.004644 0 -7.15833e-17 2.16e-11 0 1.0343e-35
3563 1 0.000635 0.0023267 -0.00889 -0.004644 0 -4.76858e-17 2.16e-11 0 5.17148e-36
3650 1 0.000635 0.00342656 -0.008255 -0.004644 4.13098e-17 -7.15825e-17 2.16e-11 0 1.0343e-35
3736 1 0.000635 0.00452641 -0.00889 -0.004644 4.13115e-17 -4.76841e-17 2.16e-11 0 3.10289e-35
3823 1 0.000635 0.00562626 -0.008255 -0.004644 -1.446e-16 -7.15791e-17 2.16e-11 0 4.0079e-35
3908 1 0.000635 0.00672611 -0.00889 -0.004644 5.1805e-09 -7.88762e-09 -1.10933e-06 1.16555e-11 1.68073e-35
3994 1 0.000635 0.00782597 -0.008255 -0.004644 -5.99369e-09 -2.14821e-08 -1.59752e-06 2.95692e-11 1.0343e-35
4079 1 0.000635 0.00892582 -0.00889 -0.004644 -3.73447e-05 3.62318e-05 -5.6008e-06 1.62519e-10 9.59471e-12
4165 1 0.000635 0.0100257 -0.008255 -0.004644 8.33275e-05 -1.27305e-05 1.97833e-05 2.19806e-10 3.29385e-11
2447 1 0.000635 -0.0119711 -0.00698473 -0.00459983 9.60591e-10 3.28703e-11 1.91262e-08 9.36167e-11 6.12775e-12
2531 1 0.000635 -0.0108715 -0.00761998 -0.00463065 2.33466e-10 6.75368e-11 5.62077e-09 1.17087e-10 2.49492e-12
2617 1 0.000635 -0.00977167 -0.006985 -0.004644 -1.35598e-06 -7.59528e-07 -1.78643e-06 3.285e-11 1.03751e-14
2702 1 0.000635 -0.00867182 -0.00762 -0.004644 -4.11807e-08 -6.89854e-09 -2.15667e-06 4.45539e-11 2.9736e-35
2788 1 0.000635 -0.00757197 -0.006985 -0.004644 1.44605e-16 -2.38958e-17 2.16e-11 0 4.0079e-35
2873 1 0.000635 -0.00647211 -0.00762 -0.004644 -1.44609e-16 2.38967e-17 2.16e-11 0 4.0079e-35
2959 1 0.000635 -0.00537226 -0.006985 -0.004644 1.44605e-16 -2.38958e-17 2.16e-11 0 4.0079e-35
3045 1 0.000635 -0.00427241 -0.00762 -0.004644 -1.13623e-16 2.98573e-17 2.16e-11 0 2.90896e-35
3132 1 0.000635 -0.00317256 -0.006985 -0.004644 3.09912e-17 -2.98573e-17 2.16e-11 0 1.87466e-35
3218 1 0.000635 -0.0020727 -0.00762 -0.004644 -1.69407e-21 2.38958e-17 2.16e-11 0 1.0343e-35
3305 1 0.000635 -0.000972852 -0.006985 -0.004644 0 -2.38967e-17 2.16e-11 0 1.0343e-35
3391 1 0.000635 0.000127 -0.00762 -0.004644 0 2.38967e-17 2.16e-11 0 1.0343e-35
3478 1 0.000635 0.00122685 -0.006985 -0.004644 0 -2.38967e-17 2.16e-11 0 1.0343e-35
3564 1 0.000635 0.0023267 -0.00762 -0.004644 0 2.38967e-17 2.16e-11 0 1.0343e-35
3651 1 0.000635 0.00342656 -0.006985 -0.004644 4.13081e-17 -2.38967e-17 2.16e-11 0 1.0343e-35
3737 1 0.000635 0.00452641 -0.00762 -0.004644 4.13217e-17 2.38958e-17 2.16e-11 0 2.06859e-35
3824 1 0.000635 0.00562626 -0.006985 -0.004644 -1.44599e-16 -2.3895e-17 2.16e-11 0 4.0079e-35
3909 1 0.000635 0.00672611 -0.00762 -0.004644 6.19757e-17 2.38958e-17 2.16e-11 0 2.9736e-35
3995 1 0.000635 0.00782597 -0.006985 -0.004644 -6.77626e-21 -2.38967e-17 2.16e-11 0 1.0343e-35
4080 1 0.000635 0.00892582 -0.00762 -0.004644 -1.58279e-08 -4.1167e-08 -3.0488e-06 1.26519e-10 1.0343e-35
4166 1 0.000635 0.0100257 -0.006985 -0.004644 -3.56407e-05 2.05205e-05 -5.31174e-06 1.76305e-10 7.77815e-12
2448 1 0.000635 -0.0119711 -0.00571497 -0.00461502 1.56264e-10 -2.40819e-11 4.15574e-09 2.98921e-11 7.69015e-12
2532 1 0.000635 -0.0108715 -0.00635 -0.004644 -2.44854e-05 -8.9473e-06 7.31011e-07 2.40243e-11 2.20598e-12
2618 1 0.000635 -0.00977167 -0.005715 -0.004644 3.6178e-10 -6.26621e-10 -3.89393e-07 2.86659e-12 6.85221e-35
2703 1 0.000635 -0.00867182 -0.00635 -0.004644 7.69576e-12 -1.33295e-11 -1.17725e-07 2.62009e-13 2.9736e-35
2789 1 0.000635 -0.00757197 -0.005715 -0.004644 1.44602e-16 4.76832e-17 2.16e-11 0 3.74932e-35
2874 1 0.000635 -0.00647211 -0.00635 -0.004644 -1.44609e-16 7.15816e-17 2.16e-11 0 4.0079e-35
2960 1 0.000635 -0.00537226 -0.005715 -0.004644 1.44604e-16 4.76841e-17 2.16e-11 5.26426e-25 3.74932e-35
3046 1 0.000635 -0.00427241 -0.00635 -0.004644 -1.13621e-16 7.75431e-17 2.16e-11 0 2.90896e-35
3133 1 0.000635 -0.00317256 -0.005715 -0.004644 2.0671e-17 4.76858e-17 2.16e-11 5.26426e-25 6.46435e-36
3219 1 0.000635 -0.0020727 -0.00635 -0.004644 -5.0822e-21 7.15842e-17 2.16e-11 0 1.0343e-35
3306 1 0.000635 -0.000972852 -0.005715 -0.004644 0 4.76866e-17 2.16e-11 0 5.17148e-36
3392 1 0.000635 0.000127 -0.00635 -0.004644 0 7.1585e-17 2.16e-11 0 1.0343e-35
3479 1 0.000635 0.00122685 -0.005715 -0.004644 0 4.76866e-17 2.16e-11 0 5.17148e-36
3565 1 0.000635 0.0023267 -0.00635 -0.004644 0 7.15842e-17 2.16e-11 0 1.0343e-35
3652 1 0.000635 0.00342656 -0.005715 -0.004644 4.13098e-17 4.76858e-17 2.16e-11 0 1.0343e-35
3738 1 0.000635 0.00452641 -0.00635 -0.004644 4.13183e-17 7.15816e-17 2.16e-11 0 2.06859e-35
3825 1 0.000635 0.00562626 -0.005715 -0.004644 -1.44597e-16 4.76841e-17 2.16e-11 0 3.74932e-35
3910 1 0.000635 0.00672611 -0.00635 -0.004644 6.19774e-17 7.15825e-17 2.16e-11 0 2.9736e-35
3996 1 0.000635 0.00782597 -0.005715 -0.004644 -6.77626e-21 4.76849e-17 2.16e-11 0 5.17148e-36
4081 1 0.000635 0.00892582 -0.00635 -0.004644 -2.98436e-09 -5.16906e-09 -6.60977e-07 8.26462e-12 1.0343e-35
4167 1 0.000635 0.0100257 -0.005715 -0.004644 -8.06521e-09 -1.39694e-08 -1.69076e-06 5.43397e-11 6.85221e-35
4252 1 0.000635 0.0111255 -0.00635 -0.004644 -4.73844e-05 -3.39406e-06 -3.79379e-06 2.13025e-10 7.46494e-12
4337 1 0.000635 0.0122243 -0.00571497 -0.00460767 -9.76085e-11 2.27098e-10 4.74914e-09 2.51519e-10 1.62698e-11
2533 1 0.000635 -0.0108715 -0.00508 -0.004644 -5.37482e-06 -3.12202e-06 -1.20158e-06 3.40646e-11 1.73568e-13
2704 1 0.000635 -0.00867182 -0.00508 -0.004644 -6.19774e-17 -2.3845e-17 2.16e-11 0 1.42216e-35
2875 1 0.000635 -0.00647211 -0.00508 -0.004644 -1.44605e-16 -2.38442e-17 2.16e-11 0 3.49075e-35
3047 1 0.000635 -0.00427241 -0.00508 -0.004644 -1.03287e-16 -2.38433e-17 2.16e-11 1.57928e-24 2.45645e-35
3220 1 0.000635 -0.0020727 -0.00508 -0.004644 -3.38813e-21 -2.38442e-17 2.16e-11 0 2.58574e-36
3393 1 0.000635 0.000127 -0.00508 -0.004644 0 -2.38442e-17 2.16e-11 0 2.58574e-36
3566 1 0.000635 0.0023267 -0.00508 -0.004644 -3.38813e-21 -2.38459e-17 2.16e-11 0 2.58574e-36
3739 1 0.000635 0.00452641 -0.00508 -0.004644 4.13081e-17 -2.38433e-17 2.16e-11 5.26426e-25 2.84431e-35
3911 1 0.000635 0.00672611 -0.00508 -0.004644 6.19859e-17 -2.38442e-17 2.16e-11 0 1.42216e-35
4082 1 0.000635 0.00892582 -0.00508 -0.004644 -8.47033e-21 -2.3845e-17 2.16e-11 0 2.58574e-36
4253 1 0.000635 0.0111255 -0.00508 -0.004644 -2.09453e-05 1.20428e-05 -3.82707e-06 1.36946e-10 2.6757e-12
2449 1 0.000635 -0.0119714 -0.004445 -0.004644 -8.84368e-05 -3.42448e-05 1.54523e-05 5.50915e-11 2.8237e-11
2534 1 0.000635 -0.0108715 -0.00381 -0.004644 -2.70593e-08 -1.69231e-08 -2.30734e-06 5.05606e-11 4.65433e-35
2619 1 0.000635 -0.00977167 -0.004445 -0.004644 -4.07413e-10 7.0566e-10 -2.55514e-07 1.23416e-12 6.01185e-35
2705 1 0.000635 -0.00867182 -0.00381 -0.004644 -8.2623e-17 0 2.16e-11 1.05285e-24 2.06859e-35
2790 1 0.000635 -0.00757197 -0.004445 -0.004644 1.44602e-16 -5.96282e-17 2.16e-11 5.26426e-25 3.74932e-35
2876 1 0.000635 -0.00647211 -0.00381 -0.004644 -1.44605e-16 0 2.16e-11 0 3.23218e-35
2961 1 0.000635 -0.00537226 -0.004445 -0.004644 1.44604e-16 -5.9629e-17 2.16e-11 5.26426e-25 3.74932e-35
3048 1 0.000635 -0.00427241 -0.00381 -0.004644 -1.03291e-16 0 2.16e-11 0 1.68073e-35
3134 1 0.000635 -0.00317256 -0.004445 -0.004644 3.09963e-17 -5.36693e-17 2.16e-11 1.57928e-24 8.40366e-36
3221 1 0.000635 -0.0020727 -0.00381 -0.004644 -6.77626e-21 0 2.16e-11 2.10571e-24 0
3307 1 0.000635 -0.000972852 -0.004445 -0.004644 0 -4.77053e-17 2.16e-11 1.05285e-24 5.17148e-36
3394 1 0.000635 0.000127 -0.00381 -0.004644 0 0 2.16e-11 1.05285e-24 0
3480 1 0.000635 0.00122685 -0.004445 -0.004644 0 -4.77053e-17 2.16e-11 1.05285e-24 5.17148e-36
3567 1 0.000635 0.0023267 -0.00381 -0.004644 0 0 2.16e-11 2.10571e-24 0
3653 1 0.000635 0.00342656 -0.004445 -0.004644 3.09811e-17 -5.36701e-17 2.16e-11 1.05285e-24 8.40366e-36
3740 1 0.000635 0.00452641 -0.00381 -0.004644 4.13217e-17 7.70372e-34 2.16e-11 0 1.29287e-35
3826 1 0.000635 0.00562626 -0.004445 -0.004644 -1.44597e-16 -5.9629e-17 2.16e-11 5.26426e-25 3.74932e-35
3912 1 0.000635 0.00672611 -0.00381 -0.004644 8.26298e-17 0 2.16e-11 1.05285e-24 2.06859e-35
3997 1 0.000635 0.00782597 -0.004445 -0.004644 -3.38813e-21 -4.77061e-17 2.16e-11 1.05285e-24 5.17148e-36
4083 1 0.000635 0.00892582 -0.00381 -0.004644 -6.77626e-21 0 2.16e-11 1.05285e-24 0
4168 1 0.000635 0.0100257 -0.004445 -0.004644 2.30759e-09 3.99687e-09 -3.20463e-07 1.94179e-12 6.01185e-35
4254 1 0.000635 0.0111255 -0.00381 -0.004644 1.22989e-08 -2.39374e-09 -1.71335e-06 2.86088e-11 4.65433e-35
4338 1 0.000635 0.0122254 -0.004445 -0.004644 3.21075e-05 5.91609e-06 1.57712e-06 2.44244e-10 1.64677e-11
2450 1 0.000635 -0.0119714 -0.003175 -0.004644 -3.19531e-05 -3.47227e-07 7.87943e-06 5.9835e-11 3.18358e-12
2535 1 0.000635 -0.0108715 -0.00254 -0.004644 -3.4197e-08 -3.22118e-09 -2.38756e-06 5.40617e-11 6.33506e-35
2620 1 0.000635 -0.00977167 -0.003175 -0.004644 -1.3427e-16 4.1748e-17 2.16e-11 5.26426e-25 5.81792e-35
2706 1 0.000635 -0.00867182 -0.00254 -0.004644 -7.2301e-17 -5.97417e-18 2.16e-11 0 1.61609e-35
2791 1 0.000635 -0.00757197 -0.003175 -0.004644 1.44602e-16 4.77053e-17 2.16e-11 5.26426e-25 3.55539e-35
2877 1 0.000635 -0.00647211 -0.00254 -0.004644 -1.44605e-16 -1.19365e-17 2.16e-11 0 3.23218e-35
2962 1 0.000635 -0.00537226 -0.003175 -0.004644 1.44604e-16 4.7707e-17 2.16e-11 0 3.55539e-35
3049 1 0.000635 -0.00427241 -0.00254 -0.004644 -1.03284e-16 -1.19373e-17 2.16e-11 5.26426e-25 1.93931e-35
3135 1 0.000635 -0.00317256 -0.003175 -0.004644 3.09963e-17 4.17472e-17 2.16e-11 1.05285e-24 6.46435e-36
3222 1 0.000635 -0.0020727 -0.00254 -0.004644 0 -1.43996e-20 2.16e-11 0 0
3308 1 0.000635 -0.000972852 -0.003175 -0.004644 0 3.57823e-17 2.16e-11 1.05285e-24 3.23218e-36
3395 1 0.000635 0.000127 -0.00254 -0.004644 0 -1.35525e-20 2.16e-11 0 0
3481 1 0.000635 0.00122685 -0.003175 -0.004644 0 3.57823e-17 2.16e-11 1.05285e-24 3.23218e-36
3568 1 0.000635 0.0023267 -0.00254 -0.004644 -6.77626e-21 -1.35525e-20 2.16e-11 0 0
3654 1 0.000635 0.00342656 -0.003175 -0.004644 3.09777e-17 4.17463e-17 2.16e-11 1.05285e-24 6.46435e-36
3741 1 0.000635 0.00452641 -0.00254 -0.004644 4.13115e-17 -1.19382e-17 2.16e-11 5.26426e-25 1.93931e-35
3827 1 0.000635 0.00562626 -0.003175 -0.004644 -1.44595e-16 4.77053e-17 2.16e-11 5.26426e-25 3.55539e-35
3913 1 0.000635 0.00672611 -0.00254 -0.004644 7.23095e-17 -5.97502e-18 2.16e-11 0 1.61609e-35
3998 1 0.000635 0.00782597 -0.003175 -0.004644 0 3.57823e-17 2.16e-11 1.05285e-24 3.23218e-36
4084 1 0.000635 0.00892582 -0.00254 -0.004644 -8.47033e-21 -1.27055e-20 2.16e-11 0 0
4169 1 0.000635 0.0100257 -0.003175 -0.004644 1.3427e-16 4.1748e-17 2.16e-11 5.26426e-25 5.81792e-35
4255 1 0.000635 0.0111255 -0.00254 -0.004644 8.90902e-09 -1.32364e-08 -1.42178e-06 1.94795e-11 6.33506e-35
4339 1 0.000635 0.0122254 -0.003175 -0.004644 4.26201e-05 1.275e-05 4.20587e-06 3.22315e-11 7.00179e-12
2451 1 0.000635 -0.0119714 -0.001905 -0.004644 -2.23039e-05 8.66871e-07 6.7993e-06 6.03715e-11 1.56421e-12
2536 1 0.000635 -0.0108715 -0.00127 -0.004644 -3.53443e-08 -3.71973e-10 -2.39334e-06 5.43285e-11 6.33506e-35
2621 1 0.000635 -0.00977167 -0.001905 -0.004644 -1.44592e-16 -1.19229e-17 2.16e-11 5.26426e-25 6.39971e-35
2707 1 0.000635 -0.00867182 -0.00127 -0.004644 -7.2301e-17 5.96909e-18 2.16e-11 5.26426e-25 1.61609e-35
2792 1 0.000635 -0.00757197 -0.001905 -0.004644 1.44605e-16 -1.19229e-17 2.16e-11 0 3.29682e-35
2878 1 0.000635 -0.00647211 -0.00127 -0.004644 -1.44605e-16 1.19331e-17 2.16e-11 0 3.23218e-35
2963 1 0.000635 -0.00537226 -0.001905 -0.004644 1.44602e-16 -1.19246e-17 2.16e-11 0 3.29682e-35
3050 1 0.000635 -0.00427241 -0.00127 -0.004644 -1.13613e-16 5.96993e-18 2.16e-11 0 2.13324e-35
3136 1 0.000635 -0.00317256 -0.001905 -0.004644 4.13081e-17 -1.19229e-17 2.16e-11 0 5.81792e-36
3223 1 0.000635 -0.0020727 -0.00127 -0.004644 0 7.6233e-21 2.16e-11 0 0
3309 1 0.000635 -0.000972852 -0.001905 -0.004644 0 -1.19229e-17 2.16e-11 0 6.46435e-37
3396 1 0.000635 0.000127 -0.00127 -0.004644 0 6.77626e-21 2.16e-11 0 0
3482 1 0.000635 0.00122685 -0.001905 -0.004644 0 -1.19229e-17 2.16e-11 0 6.46435e-37
3569 1 0.000635 0.0023267 -0.00127 -0.004644 -6.77626e-21 6.77626e-21 2.16e-11 0 0
3655 1 0.000635 0.00342656 -0.001905 -0.004644 2.06608e-17 -1.19229e-17 2.16e-11 0 1.93931e-36
3742 1 0.000635 0.00452641 -0.00127 -0.004644 4.13149e-17 1.19331e-17 2.16e-11 5.26426e-25 1.93931e-35
3828 1 0.000635 0.00562626 -0.001905 -0.004644 -1.44599e-16 -1.19229e-17 2.16e-11 0 3.29682e-35
3914 1 0.000635 0.00672611 -0.00127 -0.004644 7.23078e-17 5.96909e-18 2.16e-11 5.26426e-25 1.61609e-35
3999 1 0.000635 0.00782597 -0.001905 -0.004644 -6.77626e-21 -1.19229e-17 2.16e-11 5.26426e-25 6.46435e-37
4085 1 0.000635 0.00892582 -0.00127 -0.004644 -6.77626e-21 6.77626e-21 2.16e-11 0 0
4170 1 0.000635 0.0100257 -0.001905 -0.004644 1.44599e-16 -1.19229e-17 2.16e-11 0 6.39971e-35
4256 1 0.000635 0.0111255 -0.00127 -0.004644 1.22503e-08 -8.27959e-09 -1.54933e-06 2.28751e-11 6.33506e-35
4340 1 0.000635 0.0122254 -0.001905 -0.004644 3.03592e-05 2.62048e-06 4.89507e-06 2.4918e-11 2.88513e-12
2452 1 0.000635 -0.0119714 -0.000635 -0.004644 -2.03641e-05 3.44374e-07 6.46319e-06 6.07552e-11 1.30005e-12
2622 1 0.000635 -0.00977167 -0.000635 -0.004644 -1.44599e-16 -8.47033e-21 2.16e-11 0 6.33506e-35
2793 1 0.000635 -0.00757197 -0.000635 -0.004644 1.44604e-16 -1.19339e-17 2.16e-11 5.26426e-25 3.23218e-35
2964 1 0.000635 -0.00537226 -0.000635 -0.004644 1.44604e-16 -1.19365e-17 2.16e-11 0 3.23218e-35
3137 1 0.000635 -0.00317256 -0.000635 -0.004644 4.13183e-17 -8.47033e-21 2.16e-11 0 5.17148e-36
3310 1 0.000635 -0.000972852 -0.000635 -0.004644 0 -8.47033e-21 2.16e-11 0 0
3483 1 0.000635 0.00122685 -0.000635 -0.004644 0 -8.47033e-21 2.16e-11 0 0
3656 1 0.000635 0.00342656 -0.000635 -0.004644 3.09811e-17 -5.97078e-18 2.16e-11 5.26426e-25 3.23218e-36
3829 1 0.000635 0.00562626 -0.000635 -0.004644 -1.44597e-16 -1.19339e-17 2.16e-11 5.26426e-25 3.23218e-35
4000 1 0.000635 0.00782597 -0.000635 -0.004644 0 -8.47033e-21 2.16e-11 0 0
4171 1 0.000635 0.0100257 -0.000635 -0.004644 1.44599e-16 -8.47033e-21 2.16e-11 0 6.33506e-35
4341 1 0.000635 0.0122254 -0.000635 -0.004644 2.07863e-05 4.74234e-07 4.5878e-06 2.79604e-11 1.33288e-12
2453 1 0.000635 -0.0119714 0.000635 -0.004644 -2.03641e-05 -3.44374e-07 6.46319e-06 6.07552e-11 1.30005e-12
2537 1 0.000635 -0.0108715 0 -0.004644 -3.54067e-08 -2.48977e-16 -2.38912e-06 5.41355e-11 6.33506e-35
2623 1 0.000635 -0.00977167 0.000635 -0.004644 -1.44599e-16 -3.38813e-21 2.16e-11 0 6.33506e-35
2708 1 0.000635 -0.00867182 0 -0.004644 -8.26247e-17 5.92923e-21 2.16e-11 0 2.06859e-35
2794 1 0.000635 -0.00757197 0.000635 -0.004644 1.44602e-16 -3.38813e-21 2.16e-11 0 3.23218e-35
2879 1 0.000635 -0.00647211 0 -0.004644 -1.44605e-16 5.0822e-21 2.16e-11 0 3.23218e-35
2965 1 0.000635 -0.00537226 0.000635 -0.004644 1.44602e-16 -3.38813e-21 2.16e-11 0 3.23218e-35
3051 1 0.000635 -0.00427241 0 -0.004644 -1.03282e-16 5.92923e-21 2.16e-11 0 1.68073e-35
3138 1 0.000635 -0.00317256 0.000635 -0.004644 4.13149e-17 -3.38813e-21 2.16e-11 0 5.17148e-36
3224 1 0.000635 -0.0020727 0 -0.004644 0 6.77626e-21 2.16e-11 0 0
3311 1 0.000635 -0.000972852 0.000635 -0.004644 0 -3.38813e-21 2.16e-11 0 0
3397 1 0.000635 0.000127 0 -0.004644 0 6.77626e-21 2.16e-11 0 0
3484 1 0.000635 0.00122685 0.000635 -0.004644 0 -3.38813e-21 2.16e-11 0 0
3570 1 0.000635 0.0023267 0 -0.004644 -3.38813e-21 5.0822e-21 2.16e-11 5.26426e-25 0
3657 1 0.000635 0.00342656 0.000635 -0.004644 2.06574e-17 -3.38813e-21 2.16e-11 0 1.29287e-36
3743 1 0.000635 0.00452641 0 -0.004644 4.13132e-17 5.92923e-21 2.16e-11 0 1.29287e-35
3830 1 0.000635 0.00562626 0.000635 -0.004644 -1.44595e-16 -3.38813e-21 2.16e-11 0 3.23218e-35
3915 1 0.000635 0.00672611 0 -0.004644 8.26315e-17 5.92923e-21 2.16e-11 0 2.06859e-35
4001 1 0.000635 0.00782597 0.000635 -0.004644 0 -3.38813e-21 2.16e-11 0 0
4086 1 0.000635 0.00892582 0 -0.004644 -6.77626e-21 6.77626e-21 2.16e-11 0 0
4172 1 0.000635 0.0100257 0.000635 -0.004644 1.44599e-16 -3.38813e-21 2.16e-11 0 6.33506e-35
4257 1 0.000635 0.0111255 0 -0.004644 1.41629e-08 -1.61905e-16 -1.61499e-06 2.46846e-11 6.33506e-35
4342 1 0.000635 0.0122254 0.000635 -0.004644 2.07863e-05 -4.74234e-07 4.5878e-06 2.79604e-11 1.33288e-12
2454 1 0.000635 -0.0119714 0.001905 -0.004644 -2.23039e-05 -8.66871e-07 6.7993e-06 6.03715e-11 1.56421e-12
2538 1 0.000635 -0.0108715 0.00127 -0.004644 -3.53443e-08 3.71973e-10 -2.39334e-06 5.43285e-11 6.33506e-35
2624 1 0.000635 -0.00977167 0.001905 -0.004644 -1.44595e-16 1.19221e-17 2.16e-11 0 6.39971e-35
2709 1 0.000635 -0.00867182 0.00127 -0.004644 -8.26264e-17 0 2.16e-11 0 2.06859e-35
2795 1 0.000635 -0.00757197 0.001905 -0.004644 1.44604e-16 1.19221e-17 2.16e-11 0 3.29682e-35
2880 1 0.000635 -0.00647211 0.00127 -0.004644 -1.44605e-16 0 2.16e-11 0 3.23218e-35
2966 1 0.000635 -0.00537226 0.001905 -0.004644 1.44604e-16 1.19238e-17 2.16e-11 0 3.29682e-35
3052 1 0.000635 -0.00427241 0.00127 -0.004644 -1.0328e-16 0 2.16e-11 0 1.68073e-35
3139 1 0.000635 -0.00317256 0.001905 -0.004644 4.13115e-17 1.19229e-17 2.16e-11 0 5.81792e-36
3225 1 0.000635 -0.0020727 0.00127 -0.004644 0 0 2.16e-11 0 0
3312 1 0.000635 -0.000972852 0.001905 -0.004644 0 1.19212e-17 2.16e-11 0 6.46435e-37
3398 1 0.000635 0.000127 0.00127 -0.004644 0 0 2.16e-11 0 0
3485 1 0.000635 0.00122685 0.001905 -0.004644 0 1.19212e-17 2.16e-11 0 6.46435e-37
3571 1 0.000635 0.0023267 0.00127 -0.004644 -6.77626e-21 0 2.16e-11 0 0
3658 1 0.000635 0.00342656 0.001905 -0.004644 2.06591e-17 1.19221e-17 2.16e-11 0 1.93931e-36
3744 1 0.000635 0.00452641 0.00127 -0.004644 4.13115e-17 0 2.16e-11 0 1.29287e-35
3831 1 0.000635 0.00562626 0.001905 -0.004644 -1.44597e-16 1.19221e-17 2.16e-11 0 3.29682e-35
3916 1 0.000635 0.00672611 0.00127 -0.004644 8.26331e-17 0 2.16e-11 0 2.06859e-35
4002 1 0.000635 0.00782597 0.001905 -0.004644 -3.38813e-21 1.19221e-17 2.16e-11 0 6.46435e-37
4087 1 0.000635 0.00892582 0.00127 -0.004644 -6.77626e-21 0 2.16e-11 0 0
4173 1 0.000635 0.0100257 0.001905 -0.004644 1.44599e-16 1.19212e-17 2.16e-11 0 6.39971e-35
4258 1 0.000635 0.0111255 0.00127 -0.004644 1.22503e-08 8.27959e-09 -1.54933e-06 2.28751e-11 6.33506e-35
4343 1 0.000635 0.0122254 0.001905 -0.004644 3.03592e-05 -2.62048e-06 4.89507e-06 2.4918e-11 2.88513e-12
2455 1 0.000635 -0.0119714 0.003175 -0.004644 -3.19531e-05 3.47227e-07 7.87943e-06 5.9835e-11 3.18358e-12
2539 1 0.000635 -0.0108715 0.00254 -0.004644 -3.4197e-08 3.22118e-09 -2.38756e-06 5.40617e-11 6.33506e-35
2625 1 0.000635 -0.00977167 0.003175 -0.004644 -1.3427e-16 -4.1748e-17 2.16e-11 5.26426e-25 5.81792e-35
2710 1 0.000635 -0.00867182 0.00254 -0.004644 -7.2301e-17 5.97417e-18 2.16e-11 0 1.61609e-35
2796 1 0.000635 -0.00757197 0.003175 -0.004644 1.44602e-16 -4.77053e-17 2.16e-11 5.26426e-25 3.55539e-35
2881 1 0.000635 -0.00647211 0.00254 -0.004644 -1.44605e-16 1.19365e-17 2.16e-11 0 3.23218e-35
2967 1 0.000635 -0.00537226 0.003175 -0.004644 1.44604e-16 -4.7707e-17 2.16e-11 0 3.55539e-35
3053 1 0.000635 -0.00427241 0.00254 -0.004644 -1.03284e-16 1.19373e-17 2.16e-11 5.26426e-25 1.93931e-35
3140 1 0.000635 -0.00317256 0.003175 -0.004644 3.09963e-17 -4.17472e-17 2.16e-11 1.05285e-24 6.46435e-36
3226 1 0.000635 -0.0020727 0.00254 -0.004644 0 1.43996e-20 2.16e-11 0 0
3313 1 0.000635 -0.000972852 0.003175 -0.004644 0 -3.57823e-17 2.16e-11 1.05285e-24 3.23218e-36
3399 1 0.000635 0.000127 0.00254 -0.004644 0 1.35525e-20 2.16e-11 0 0
3486 1 0.000635 0.00122685 0.003175 -0.004644 0 -3.57823e-17 2.16e-11 1.05285e-24 3.23218e-36
3572 1 0.000635 0.0023267 0.00254 -0.004644 -6.77626e-21 1.35525e-20 2.16e-11 0 0
3659 1 0.000635 0.00342656 0.003175 -0.004644 3.09777e-17 -4.17463e-17 2.16e-11 1.05285e-24 6.46435e-36
3745 1 0.000635 0.00452641 0.00254 -0.004644 4.13115e-17 1.19382e-17 2.16e-11 5.26426e-25 1.93931e-35
3832 1 0.000635 0.00562626 0.003175 -0.004644 -1.44595e-16 -4.77053e-17 2.16e-11 5.26426e-25 3.55539e-35
3917 1 0.000635 0.00672611 0.00254 -0.004644 7.23095e-17 5.97502e-18 2.16e-11 0 1.61609e-35
4003 1 0.000635 0.00782597 0.003175 -0.004644 0 -3.57823e-17 2.16e-11 1.05285e-24 3.23218e-36
4088 1 0.000635 0.00892582 0.00254 -0.004644 -8.47033e-21 1.27055e-20 2.16e-11 0 0
4174 1 0.000635 0.0100257 0.003175 -0.004644 1.3427e-16 -4.1748e-17 2.16e-11 5.26426e-25 5.81792e-35
4259 1 0.000635 0.0111255 0.00254 -0.004644 8.90902e-09 1.32364e-08 -1.42178e-06 1.94795e-11 6.33506e-35
4344 1 0.000635 0.0122254 0.003175 -0.004644 4.26201e-05 -1.275e-05 4.20587e-06 3.22315e-11 7.00179e-12
2456 1 0.000635 -0.0119714 0.004445 -0.004644 -8.84368e-05 3.42448e-05 1.54523e-05 5.50915e-11 2.8237e-11
2540 1 0.000635 -0.0108715 0.00381 -0.004644 -2.70593e-08 1.69231e-08 -2.30734e-06 5.05606e-11 4.65433e-35
2626 1 0.000635 -0.00977167 0.004445 -0.004644 -4.07413e-10 -7.0566e-10 -2.55514e-07 1.23416e-12 6.01185e-35
2711 1 0.000635 -0.00867182 0.00381 -0.004644 -8.2623e-17 0 2.16e-11 1.05285e-24 2.06859e-35
2797 1 0.000635 -0.00757197 0.004445 -0.004644 1.44602e-16 5.96282e-17 2.16e-11 5.26426e-25 3.74932e-35
2882 1 0.000635 -0.00647211 0.00381 -0.004644 -1.44605e-16 0 2.16e-11 0 3.23218e-35
2968 1 0.000635 -0.00537226 0.004445 -0.004644 1.44604e-16 5.9629e-17 2.16e-11 5.26426e-25 3.74932e-35
3054 1 0.000635 -0.00427241 0.00381 -0.004644 -1.03291e-16 0 2.16e-11 0 1.68073e-35
3141 1 0.000635 -0.00317256 0.004445 -0.004644 3.09963e-17 5.36693e-17 2.16e-11 1.57928e-24 8.40366e-36
3227 1 0.000635 -0.0020727 0.00381 -0.004644 -6.77626e-21 0 2.16e-11 2.10571e-24 0
3314 1 0.000635 -0.000972852 0.004445 -0.004644 0 4.77053e-17 2.16e-11 1.05285e-24 5.17148e-36
3400 1 0.000635 0.000127 0.00381 -0.004644 0 0 2.16e-11 1.05285e-24 0
3487 1 0.000635 0.00122685 0.004445 -0.004644 0 4.77053e-17 2.16e-11 1.05285e-24 5.17148e-36
3573 1 0.000635 0.0023267 0.00381 -0.004644 0 0 2.16e-11 2.10571e-24 0
3660 1 0.000635 0.00342656 0.004445 -0.004644 3.09811e-17 5.36701e-17 2.16e-11 1.05285e-24 8.40366e-36
3746 1 0.000635 0.00452641 0.00381 -0.004644 4.13217e-17 0 2.16e-11 0 1.29287e-35
3833 1 0.000635 0.00562626 0.004445 -0.004644 -1.44597e-16 5.9629e-17 2.16e-11 5.26426e-25 3.74932e-35
3918 1 0.000635 0.00672611 0.00381 -0.004644 8.26298e-17 0 2.16e-11 1.05285e-24 2.06859e-35
4004 1 0.000635 0.00782597 0.004445 -0.004644 -3.38813e-21 4.77061e-17 2.16e-11 1.05285e-24 5.17148e-36
4089 1 0.000635 0.00892582 0.00381 -0.004644 -6.77626e-21 0 2.16e-11 1.05285e-24 0
4175 1 0.000635 0.0100257 0.004445 -0.004644 2.30759e-09 -3.99687e-09 -3.20463e-07 1.94179e-12 6.01185e-35
4260 1 0.000635 0.0111255 0.00381 -0.004644 1.22989e-08 2.39374e-09 -1.71335e-06 2.86088e-11 4.65433e-35
4345 1 0.000635 0.0122254 0.004445 -0.004644 3.21075e-05 -5.91609e-06 1.57712e-06 2.44244e-10 1.64677e-11
2541 1 0.000635 -0.0108715 0.00508 -0.004644 -5.37482e-06 3.12202e-06 -1.20158e-06 3.40646e-11 1.73568e-13
2712 1 0.000635 -0.00867182 0.00508 -0.004644 -6.19774e-17 2.3845e-17 2.16e-11 0 1.42216e-35
2883 1 0.000635 -0.00647211 0.00508 -0.004644 -1.44605e-16 2.38442e-17 2.16e-11 0 3.49075e-35
3055 1 0.000635 -0.00427241 0.00508 -0.004644 -1.03287e-16 2.38433e-17 2.16e-11 1.57928e-24 2.45645e-35
3228 1 0.000635 -0.0020727 0.00508 -0.004644 -3.38813e-21 2.38442e-17 2.16e-11 0 2.58574e-36
3401 1 0.000635 0.000127 0.00508 -0.004644 0 2.38442e-17 2.16e-11 0 2.58574e-36
3574 1 0.000635 0.0023267 0.00508 -0.004644 -3.38813e-21 2.38459e-17 2.16e-11 0 2.58574e-36
3747 1 0.000635 0.00452641 0.00508 -0.004644 4.13081e-17 2.38433e-17 2.16e-11 5.26426e-25 2.84431e-35
3919 1 0.000635 0.00672611 0.00508 -0.004644 6.19859e-17 2.38442e-17 2.16e-11 0 1.42216e-35
4090 1 0.000635 0.00892582 0.00508 -0.004644 -8.47033e-21 2.3845e-17 2.16e-11 0 2.58574e-36
4261 1 0.000635 0.0111255 0.00508 -0.004644 -2.09453e-05 -1.20428e-05 -3.82707e-06 1.36946e-10 2.6757e-12
2457 1 0.000635 -0.0119711 0.00571497 -0.00461502 1.5633e-10 2.40457e-11 4.15574e-09 2.98921e-11 7.69015e-12
2542 1 0.000635 -0.0108715 0.00635 -0.004644 -2.44854e-05 8.9473e-06 7.31011e-07 2.40243e-11 2.20598e-12
2627 1 0.000635 -0.00977167 0.005715 -0.004644 3.6178e-10 6.26621e-10 -3.89393e-07 2.86659e-12 6.85221e-35
2713 1 0.000635 -0.00867182 0.00635 -0.004644 7.69578e-12 1.33295e-11 -1.17725e-07 2.62009e-13 2.9736e-35
2798 1 0.000635 -0.00757197 0.005715 -0.004644 1.44602e-16 -4.76832e-17 2.16e-11 0 3.74932e-35
2884 1 0.000635 -0.00647211 0.00635 -0.004644 -1.44609e-16 -7.15816e-17 2.16e-11 0 4.0079e-35
2969 1 0.000635 -0.00537226 0.005715 -0.004644 1.44604e-16 -4.76841e-17 2.16e-11 5.26426e-25 3.74932e-35
3056 1 0.000635 -0.00427241 0.00635 -0.004644 -1.13621e-16 -7.75431e-17 2.16e-11 0 2.90896e-35
3142 1 0.000635 -0.00317256 0.005715 -0.004644 2.0671e-17 -4.76858e-17 2.16e-11 5.26426e-25 6.46435e-36
3229 1 0.000635 -0.0020727 0.00635 -0.004644 -5.0822e-21 -7.15842e-17 2.16e-11 0 1.0343e-35
3315 1 0.000635 -0.000972852 0.005715 -0.004644 0 -4.76866e-17 2.16e-11 0 5.17148e-36
3402 1 0.000635 0.000127 0.00635 -0.004644 0 -7.1585e-17 2.16e-11 0 1.0343e-35
3488 1 0.000635 0.00122685 0.005715 -0.004644 0 -4.76866e-17 2.16e-11 0 5.17148e-36
3575 1 0.000635 0.0023267 0.00635 -0.004644 0 -7.15842e-17 2.16e-11 0 1.0343e-35
3661 1 0.000635 0.00342656 0.005715 -0.004644 4.13098e-17 -4.76858e-17 2.16e-11 0 1.0343e-35