ITEM: TIMESTEP
1830000
ITEM: NUMBER OF ATOMS
6793
ITEM: BOX BOUNDS ff ff ff
-8.9999999999999997e-02 8.9999999999999997e-02
-8.9999999999999997e-02 8.9999999999999997e-02
-4.0000000000000001e-02 4.0000000000000001e-02
ITEM: ATOMS id type radius x y z fx fy fz c_bendingE c_stretchingE
3213 1 0.000635 -0.00207198 -0.0139549 -0.0195777 8.09531e-12 -1.55203e-10 -1.86165e-09 5.89596e-09 3.57665e-10
3299 1 0.000635 -0.000974517 -0.0145874 -0.0195245 -3.4869e-11 -2.73171e-10 -9.86714e-10 5.43043e-09 1.03125e-10
3386 1 0.000635 0.00012566 -0.0139633 -0.0196285 -6.42534e-11 -2.78751e-10 -1.84338e-09 3.95574e-09 4.19785e-11
3041 1 0.000635 -0.00426698 -0.0126867 -0.0195893 -5.47247e-10 -1.2388e-10 -2.09972e-09 3.81225e-09 1.33507e-10
3127 1 0.000635 -0.00316887 -0.0133205 -0.0195871 -5.58921e-10 -3.85903e-10 -3.24184e-09 4.51179e-09 3.43243e-10
3214 1 0.000635 -0.0020727 -0.0127 -0.019764 -9.45482e-05 1.82556e-05 -7.66114e-06 5.09166e-09 7.8636e-11
3300 1 0.000635 -0.000973374 -0.0133355 -0.0197391 -6.58125e-12 -2.85639e-10 -2.70409e-09 3.99392e-09 5.33194e-11
3387 1 0.000635 0.000127 -0.0127 -0.019764 -5.83302e-05 -5.08805e-05 4.98659e-07 4.27113e-10 1.79373e-11
3473 1 0.000635 0.0012257 -0.0133339 -0.0197067 -5.11369e-11 3.85091e-11 7.21134e-11 5.42851e-10 1.65383e-10
3560 1 0.000635 0.0023267 -0.0127 -0.019764 7.90079e-05 -0.000221467 0.000120028 6.76359e-10 2.60061e-10
2870 1 0.000635 -0.00646431 -0.0114184 -0.019591 2.99863e-11 4.17084e-10 1.92519e-09 2.98561e-09 5.82656e-11
2955 1 0.000635 -0.0053655 -0.0120527 -0.0195905 -3.46193e-10 1.62122e-10 -1.80028e-10 3.32559e-09 6.26416e-11
3042 1 0.000635 -0.00427241 -0.01143 -0.019764 7.99748e-07 6.19637e-05 -1.82615e-05 3.00047e-09 1.84534e-11
3128 1 0.000635 -0.00317256 -0.012065 -0.019764 -4.00347e-05 9.22828e-05 -2.08202e-05 3.7434e-09 7.11419e-11
3215 1 0.000635 -0.0020727 -0.01143 -0.019764 3.22525e-08 -6.68954e-08 -3.1846e-06 9.65392e-11 5.17148e-36
3301 1 0.000635 -0.000972852 -0.012065 -0.019764 2.51649e-08 -4.07375e-05 -2.50169e-06 1.05342e-10 7.5052e-12
3388 1 0.000635 0.000127 -0.01143 -0.019764 1.18146e-08 0 -1.19474e-06 2.70554e-11 5.17148e-36
3474 1 0.000635 0.00122685 -0.012065 -0.019764 -1.8491e-08 -8.45488e-06 -5.61938e-06 4.52801e-10 2.93941e-13
3561 1 0.000635 0.0023267 -0.01143 -0.019764 3.12501e-07 -1.71416e-07 -7.32756e-06 5.72285e-10 5.17148e-36
3647 1 0.000635 0.00342656 -0.012065 -0.019764 6.20376e-05 5.04856e-05 -1.81379e-06 5.12978e-10 5.77537e-11
3734 1 0.000635 0.00452641 -0.01143 -0.019764 2.35225e-05 2.33916e-05 2.65967e-06 3.5398e-10 9.63054e-12
3820 1 0.000635 0.00561289 -0.0120402 -0.0195162 -9.5708e-11 1.22721e-10 1.97224e-10 3.33387e-10 8.33653e-12
3906 1 0.000635 0.00671641 -0.0114125 -0.0195548 3.56374e-10 -9.96927e-10 -4.04561e-09 2.77036e-10 2.47664e-12
2785 1 0.000635 -0.00756315 -0.0107836 -0.0195893 4.26811e-10 4.4551e-10 2.76054e-09 2.74709e-09 8.55897e-11
2956 1 0.000635 -0.00537226 -0.010795 -0.019764 3.14322e-05 3.72628e-05 -1.61318e-05 2.48819e-09 8.95703e-12
3129 1 0.000635 -0.00317256 -0.010795 -0.019764 -4.01989e-10 -5.56518e-08 -3.09348e-06 9.09672e-11 6.46435e-36
3302 1 0.000635 -0.000972852 -0.010795 -0.019764 4.60148e-09 -1.69407e-21 -2.19528e-07 9.11396e-13 5.17148e-36
3475 1 0.000635 0.00122685 -0.010795 -0.019764 1.01594e-08 0 -5.04875e-07 4.8218e-12 5.17148e-36
3648 1 0.000635 0.00342656 -0.010795 -0.019764 1.94733e-07 -1.13149e-07 -5.57232e-06 3.14824e-10 1.0343e-35
3821 1 0.000635 0.00562626 -0.010795 -0.019764 1.07783e-05 1.27264e-05 3.26978e-06 2.60606e-10 2.34443e-12
3992 1 0.000635 0.00781931 -0.0107831 -0.0195885 -1.47279e-10 7.24332e-11 3.48626e-10 1.38866e-09 6.18105e-11
2615 1 0.000635 -0.00975886 -0.00951145 -0.0195659 1.46429e-11 -3.38779e-10 -4.79495e-10 2.69882e-09 2.56479e-10
2700 1 0.000635 -0.00866161 -0.0101482 -0.0195826 3.97931e-10 1.65817e-10 1.28473e-09 2.62517e-09 1.35042e-10
2786 1 0.000635 -0.00757197 -0.009525 -0.019764 7.84222e-05 3.36216e-06 -1.32249e-05 1.67957e-09 4.67232e-11
2871 1 0.000635 -0.00647211 -0.01016 -0.019764 5.5899e-05 1.81245e-05 -1.43896e-05 2.06951e-09 2.11722e-11
2957 1 0.000635 -0.00537226 -0.009525 -0.019764 -3.56943e-08 -4.14569e-08 -3.07293e-06 8.97621e-11 3.74932e-35
3043 1 0.000635 -0.00427241 -0.01016 -0.019764 -2.06471e-08 -4.71913e-08 -3.06917e-06 8.95313e-11 2.71503e-35
3130 1 0.000635 -0.00317256 -0.009525 -0.019764 2.0671e-17 0 2.16e-11 1.05285e-24 6.46435e-36
3216 1 0.000635 -0.0020727 -0.01016 -0.019764 -6.77626e-21 0 2.16e-11 0 5.17148e-36
3303 1 0.000635 -0.000972852 -0.009525 -0.019764 0 0 2.16e-11 0 5.17148e-36
3389 1 0.000635 0.000127 -0.01016 -0.019764 0 0 2.16e-11 0 5.17148e-36
3476 1 0.000635 0.00122685 -0.009525 -0.019764 0 0 2.16e-11 0 5.17148e-36
3562 1 0.000635 0.0023267 -0.01016 -0.019764 0 0 2.16e-11 0 5.17148e-36
3649 1 0.000635 0.00342656 -0.009525 -0.019764 4.13115e-17 0 2.16e-11 0 1.0343e-35
3735 1 0.000635 0.00452641 -0.01016 -0.019764 1.22631e-07 -7.88205e-08 -4.49791e-06 2.00401e-10 3.10289e-35
3822 1 0.000635 0.00562626 -0.009525 -0.019764 8.71362e-08 -5.33463e-08 -3.73289e-06 1.36957e-10 3.74932e-35
3907 1 0.000635 0.00672611 -0.01016 -0.019764 2.25961e-05 -5.87713e-06 6.19847e-06 2.04283e-10 3.35297e-12
3993 1 0.000635 0.00782597 -0.009525 -0.019764 2.13259e-05 -2.79499e-05 5.2885e-06 5.19485e-10 3.85069e-12
4078 1 0.000635 0.00892084 -0.0101484 -0.0196006 7.31143e-11 -2.91536e-10 -1.94316e-09 2.68685e-09 1.4652e-10
2446 1 0.000635 -0.0119558 -0.00824536 -0.0195006 1.08577e-10 -6.4962e-10 3.34591e-10 4.17788e-09 3.89163e-11
2530 1 0.000635 -0.010856 -0.00887693 -0.0195391 4.34661e-10 6.89663e-12 1.66045e-09 3.12501e-09 1.15005e-10
2616 1 0.000635 -0.00977167 -0.008255 -0.019764 -2.66601e-05 -0.000102157 1.9186e-05 9.04128e-10 5.95482e-11
2701 1 0.000635 -0.00867182 -0.00889 -0.019764 0.000106938 -8.35394e-06 -1.37862e-05 1.28806e-09 9.36057e-11
2787 1 0.000635 -0.00757197 -0.008255 -0.019764 -5.41506e-08 -4.08111e-08 -3.28964e-06 1.03402e-10 4.0079e-35
2872 1 0.000635 -0.00647211 -0.00889 -0.019764 -4.62816e-08 -3.90542e-08 -3.1278e-06 9.3081e-11 3.74932e-35
2958 1 0.000635 -0.00537226 -0.008255 -0.019764 1.44607e-16 -7.15799e-17 2.16e-11 5.26426e-25 4.0079e-35
3044 1 0.000635 -0.00427241 -0.00889 -0.019764 -1.03289e-16 -4.76841e-17 2.16e-11 1.05285e-24 2.71503e-35
3131 1 0.000635 -0.00317256 -0.008255 -0.019764 3.09912e-17 -7.75431e-17 2.16e-11 5.26426e-25 1.87466e-35
3217 1 0.000635 -0.0020727 -0.00889 -0.019764 -3.38813e-21 -4.76866e-17 2.16e-11 0 5.17148e-36
3304 1 0.000635 -0.000972852 -0.008255 -0.019764 0 -7.15833e-17 2.16e-11 0 1.0343e-35
3390 1 0.000635 0.000127 -0.00889 -0.019764 0 -4.76866e-17 2.16e-11 0 5.17148e-36
3477 1 0.000635 0.00122685 -0.008255 -0.019764 0 -7.15833e-17 2.16e-11 0 1.0343e-35
3563 1 0.000635 0.0023267 -0.00889 -0.019764 0 -4.76858e-17 2.16e-11 0 5.17148e-36
3650 1 0.000635 0.00342656 -0.008255 -0.019764 4.13098e-17 -7.15825e-17 2.16e-11 0 1.0343e-35
3736 1 0.000635 0.00452641 -0.00889 -0.019764 4.13115e-17 -4.76841e-17 2.16e-11 0 3.10289e-35
3823 1 0.000635 0.00562626 -0.008255 -0.019764 -1.446e-16 -7.15791e-17 2.16e-11 0 4.0079e-35
3908 1 0.000635 0.00672611 -0.00889 -0.019764 5.21719e-08 -5.7938e-08 -3.28649e-06 1.04437e-10 1.68073e-35
3994 1 0.000635 0.00782597 -0.008255 -0.019764 -2.21409e-08 -1.3999e-07 -4.35788e-06 1.9775e-10 1.0343e-35
4079 1 0.000635 0.00892582 -0.00889 -0.019764 -0.000118208 0.000123655 -4.42859e-05 1.3219e-09 1.06175e-10
4165 1 0.000635 0.0100257 -0.008255 -0.019764 0.000491299 8.97302e-05 0.000155256 1.89656e-09 1.50905e-09
2447 1 0.000635 -0.0119675 -0.00698397 -0.0196447 3.28643e-11 -3.70481e-10 1.1588e-10 5.02767e-10 1.28954e-10
2531 1 0.000635 -0.0108708 -0.00761969 -0.0197166 5.05314e-10 3.17921e-10 6.03468e-09 6.12891e-10 2.07738e-11
2617 1 0.000635 -0.00977167 -0.006985 -0.019764 -6.76619e-06 -3.84956e-06 -2.54267e-06 1.07076e-10 2.66288e-13
2702 1 0.000635 -0.00867182 -0.00762 -0.019764 -7.42081e-08 -2.72707e-08 -3.58181e-06 1.23641e-10 2.9736e-35
2788 1 0.000635 -0.00757197 -0.006985 -0.019764 1.44605e-16 -2.38958e-17 2.16e-11 0 4.0079e-35
2873 1 0.000635 -0.00647211 -0.00762 -0.019764 -1.44609e-16 2.38967e-17 2.16e-11 0 4.0079e-35
2959 1 0.000635 -0.00537226 -0.006985 -0.019764 1.44605e-16 -2.38958e-17 2.16e-11 0 4.0079e-35
3045 1 0.000635 -0.00427241 -0.00762 -0.019764 -1.13623e-16 2.98573e-17 2.16e-11 0 2.90896e-35
3132 1 0.000635 -0.00317256 -0.006985 -0.019764 3.09912e-17 -2.98573e-17 2.16e-11 0 1.87466e-35
3218 1 0.000635 -0.0020727 -0.00762 -0.019764 -1.69407e-21 2.38958e-17 2.16e-11 0 1.0343e-35
3305 1 0.000635 -0.000972852 -0.006985 -0.019764 0 -2.38967e-17 2.16e-11 0 1.0343e-35
3391 1 0.000635 0.000127 -0.00762 -0.019764 0 2.38967e-17 2.16e-11 0 1.0343e-35
3478 1 0.000635 0.00122685 -0.006985 -0.019764 0 -2.38967e-17 2.16e-11 0 1.0343e-35
3564 1 0.000635 0.0023267 -0.00762 -0.019764 0 2.38967e-17 2.16e-11 0 1.0343e-35
3651 1 0.000635 0.00342656 -0.006985 -0.019764 4.13081e-17 -2.38967e-17 2.16e-11 0 1.0343e-35
3737 1 0.000635 0.00452641 -0.00762 -0.019764 4.13217e-17 2.38958e-17 2.16e-11 0 2.06859e-35
3824 1 0.000635 0.00562626 -0.006985 -0.019764 -1.44599e-16 -2.3895e-17 2.16e-11 0 4.0079e-35
3909 1 0.000635 0.00672611 -0.00762 -0.019764 6.19757e-17 2.38958e-17 2.16e-11 0 2.9736e-35
3995 1 0.000635 0.00782597 -0.006985 -0.019764 -6.77626e-21 -2.38967e-17 2.16e-11 0 1.0343e-35
4080 1 0.000635 0.00892582 -0.00762 -0.019764 -1.11294e-07 -2.68945e-07 -7.59917e-06 8.22221e-10 1.0343e-35
4166 1 0.000635 0.0100257 -0.006985 -0.019764 -0.000126205 7.18434e-05 -2.88306e-05 1.4711e-09 9.93128e-11
4251 1 0.000635 0.0111148 -0.00760733 -0.0195833 3.08611e-10 -3.69132e-10 -2.08193e-09 2.33856e-09 2.35824e-09
2448 1 0.000635 -0.0119704 -0.00571577 -0.0197154 -5.06726e-10 -2.36079e-10 -2.91771e-09 4.00995e-10 1.44347e-10
2532 1 0.000635 -0.0108715 -0.00635 -0.019764 -7.02906e-05 -8.84477e-05 9.18852e-06 1.66353e-10 4.88239e-11
2618 1 0.000635 -0.00977167 -0.005715 -0.019764 -4.50717e-09 7.80665e-09 -1.05053e-06 2.0904e-11 6.85221e-35
2703 1 0.000635 -0.00867182 -0.00635 -0.019764 -3.3044e-10 5.72339e-10 -4.17551e-07 3.29628e-12 2.9736e-35
2789 1 0.000635 -0.00757197 -0.005715 -0.019764 1.44602e-16 4.76832e-17 2.16e-11 0 3.74932e-35
2874 1 0.000635 -0.00647211 -0.00635 -0.019764 -1.44609e-16 7.15816e-17 2.16e-11 0 4.0079e-35
2960 1 0.000635 -0.00537226 -0.005715 -0.019764 1.44604e-16 4.76841e-17 2.16e-11 5.26426e-25 3.74932e-35
3046 1 0.000635 -0.00427241 -0.00635 -0.019764 -1.13621e-16 7.75431e-17 2.16e-11 0 2.90896e-35
3133 1 0.000635 -0.00317256 -0.005715 -0.019764 2.0671e-17 4.76858e-17 2.16e-11 5.26426e-25 6.46435e-36
3219 1 0.000635 -0.0020727 -0.00635 -0.019764 -5.0822e-21 7.15842e-17 2.16e-11 0 1.0343e-35
3306 1 0.000635 -0.000972852 -0.005715 -0.019764 0 4.76866e-17 2.16e-11 0 5.17148e-36
3392 1 0.000635 0.000127 -0.00635 -0.019764 0 7.1585e-17 2.16e-11 0 1.0343e-35
3479 1 0.000635 0.00122685 -0.005715 -0.019764 0 4.76866e-17 2.16e-11 0 5.17148e-36
3565 1 0.000635 0.0023267 -0.00635 -0.019764 0 7.15842e-17 2.16e-11 0 1.0343e-35
3652 1 0.000635 0.00342656 -0.005715 -0.019764 4.13098e-17 4.76858e-17 2.16e-11 0 1.0343e-35
3738 1 0.000635 0.00452641 -0.00635 -0.019764 4.13183e-17 7.15816e-17 2.16e-11 0 2.06859e-35
3825 1 0.000635 0.00562626 -0.005715 -0.019764 -1.44597e-16 4.76841e-17 2.16e-11 0 3.74932e-35
3910 1 0.000635 0.00672611 -0.00635 -0.019764 6.19774e-17 7.15825e-17 2.16e-11 0 2.9736e-35
3996 1 0.000635 0.00782597 -0.005715 -0.019764 -6.77626e-21 4.76849e-17 2.16e-11 0 5.17148e-36
4081 1 0.000635 0.00892582 -0.00635 -0.019764 -2.47049e-08 -4.27902e-08 -1.59723e-06 4.85059e-11 1.0343e-35
4167 1 0.000635 0.0100257 -0.005715 -0.019764 -7.73201e-08 -1.33922e-07 -4.49262e-06 3.98636e-10 6.85221e-35
4252 1 0.000635 0.0111255 -0.00635 -0.019764 -0.000455903 -1.11471e-05 -0.000129665 2.13083e-09 6.98149e-10
4337 1 0.000635 0.01222 -0.0057185 -0.0196964 -2.8988e-11 6.61349e-11 -5.70283e-13 3.11115e-09 1.53104e-09
2533 1 0.000635 -0.0108715 -0.00508 -0.019764 -2.27682e-05 -1.3325e-05 -3.98186e-06 3.06904e-10 3.08523e-12
2704 1 0.000635 -0.00867182 -0.00508 -0.019764 -6.19774e-17 -2.3845e-17 2.16e-11 0 1.42216e-35
2875 1 0.000635 -0.00647211 -0.00508 -0.019764 -1.44605e-16 -2.38442e-17 2.16e-11 0 3.49075e-35
3047 1 0.000635 -0.00427241 -0.00508 -0.019764 -1.03287e-16 -2.38433e-17 2.16e-11 1.57928e-24 2.45645e-35
3220 1 0.000635 -0.0020727 -0.00508 -0.019764 -3.38813e-21 -2.38442e-17 2.16e-11 0 2.58574e-36
3393 1 0.000635 0.000127 -0.00508 -0.019764 0 -2.38442e-17 2.16e-11 0 2.58574e-36
3566 1 0.000635 0.0023267 -0.00508 -0.019764 -3.38813e-21 -2.38459e-17 2.16e-11 0 2.58574e-36
3739 1 0.000635 0.00452641 -0.00508 -0.019764 4.13081e-17 -2.38433e-17 2.16e-11 5.26426e-25 2.84431e-35
3911 1 0.000635 0.00672611 -0.00508 -0.019764 6.19859e-17 -2.38442e-17 2.16e-11 0 1.42216e-35
4082 1 0.000635 0.00892582 -0.00508 -0.019764 -8.47033e-21 -2.3845e-17 2.16e-11 0 2.58574e-36
4253 1 0.000635 0.0111255 -0.00508 -0.019764 -5.2293e-05 2.97704e-05 -1.38448e-05 1.45413e-09 1.68445e-11
2449 1 0.000635 -0.0119714 -0.004445 -0.019764 -0.000177042 -0.000123566 7.56998e-05 4.7946e-10 1.55913e-10
2534 1 0.000635 -0.0108715 -0.00381 -0.019764 -2.37017e-07 -1.20845e-07 -6.41145e-06 3.99792e-10 4.65433e-35
2619 1 0.000635 -0.00977167 -0.004445 -0.019764 -5.0556e-09 8.75656e-09 -4.28138e-07 3.46752e-12 6.01185e-35
2705 1 0.000635 -0.00867182 -0.00381 -0.019764 -8.2623e-17 0 2.16e-11 1.05285e-24 2.06859e-35
2790 1 0.000635 -0.00757197 -0.004445 -0.019764 1.44602e-16 -5.96282e-17 2.16e-11 5.26426e-25 3.74932e-35
2876 1 0.000635 -0.00647211 -0.00381 -0.019764 -1.44605e-16 0 2.16e-11 0 3.23218e-35
2961 1 0.000635 -0.00537226 -0.004445 -0.019764 1.44604e-16 -5.9629e-17 2.16e-11 5.26426e-25 3.74932e-35
3048 1 0.000635 -0.00427241 -0.00381 -0.019764 -1.03291e-16 0 2.16e-11 0 1.68073e-35
3134 1 0.000635 -0.00317256 -0.004445 -0.019764 3.09963e-17 -5.36693e-17 2.16e-11 1.57928e-24 8.40366e-36
3221 1 0.000635 -0.0020727 -0.00381 -0.019764 -6.77626e-21 0 2.16e-11 2.10571e-24 0
3307 1 0.000635 -0.000972852 -0.004445 -0.019764 0 -4.77053e-17 2.16e-11 1.05285e-24 5.17148e-36
3394 1 0.000635 0.000127 -0.00381 -0.019764 0 0 2.16e-11 1.05285e-24 0
3480 1 0.000635 0.00122685 -0.004445 -0.019764 0 -4.77053e-17 2.16e-11 1.05285e-24 5.17148e-36
3567 1 0.000635 0.0023267 -0.00381 -0.019764 0 0 2.16e-11 2.10571e-24 0
3653 1 0.000635 0.00342656 -0.004445 -0.019764 3.09811e-17 -5.36701e-17 2.16e-11 1.05285e-24 8.40366e-36
3740 1 0.000635 0.00452641 -0.00381 -0.019764 4.13217e-17 7.70372e-34 2.16e-11 0 1.29287e-35
3826 1 0.000635 0.00562626 -0.004445 -0.019764 -1.44597e-16 -5.9629e-17 2.16e-11 5.26426e-25 3.74932e-35
3912 1 0.000635 0.00672611 -0.00381 -0.019764 8.26298e-17 0 2.16e-11 1.05285e-24 2.06859e-35
3997 1 0.000635 0.00782597 -0.004445 -0.019764 -3.38813e-21 -4.77061e-17 2.16e-11 1.05285e-24 5.17148e-36
4083 1 0.000635 0.00892582 -0.00381 -0.019764 -6.77626e-21 0 2.16e-11 1.05285e-24 0
4168 1 0.000635 0.0100257 -0.004445 -0.019764 2.52579e-08 4.37479e-08 -5.96392e-07 6.77513e-12 6.01185e-35
4254 1 0.000635 0.0111255 -0.00381 -0.019764 1.71637e-07 -4.83366e-08 -5.31338e-06 2.72007e-10 4.65433e-35
4338 1 0.000635 0.0122254 -0.004445 -0.019764 0.000171363 -0.000291182 5.99581e-05 3.26069e-09 4.81848e-10
2450 1 0.000635 -0.0119714 -0.003175 -0.019764 4.20685e-05 7.91253e-05 -5.61853e-06 5.49899e-10 6.26766e-11
2535 1 0.000635 -0.0108715 -0.00254 -0.019764 -2.87213e-07 -2.33475e-08 -6.68858e-06 4.35856e-10 6.33506e-35
2620 1 0.000635 -0.00977167 -0.003175 -0.019764 -1.3427e-16 4.1748e-17 2.16e-11 5.26426e-25 5.81792e-35
2706 1 0.000635 -0.00867182 -0.00254 -0.019764 -7.2301e-17 -5.97417e-18 2.16e-11 0 1.61609e-35
2791 1 0.000635 -0.00757197 -0.003175 -0.019764 1.44602e-16 4.77053e-17 2.16e-11 5.26426e-25 3.55539e-35
2877 1 0.000635 -0.00647211 -0.00254 -0.019764 -1.44605e-16 -1.19365e-17 2.16e-11 0 3.23218e-35
2962 1 0.000635 -0.00537226 -0.003175 -0.019764 1.44604e-16 4.7707e-17 2.16e-11 0 3.55539e-35
3049 1 0.000635 -0.00427241 -0.00254 -0.019764 -1.03284e-16 -1.19373e-17 2.16e-11 5.26426e-25 1.93931e-35
3135 1 0.000635 -0.00317256 -0.003175 -0.019764 3.09963e-17 4.17472e-17 2.16e-11 1.05285e-24 6.46435e-36
3222 1 0.000635 -0.0020727 -0.00254 -0.019764 0 -1.43996e-20 2.16e-11 0 0
3308 1 0.000635 -0.000972852 -0.003175 -0.019764 0 3.57823e-17 2.16e-11 1.05285e-24 3.23218e-36
3395 1 0.000635 0.000127 -0.00254 -0.019764 0 -1.35525e-20 2.16e-11 0 0
3481 1 0.000635 0.00122685 -0.003175 -0.019764 0 3.57823e-17 2.16e-11 1.05285e-24 3.23218e-36
3568 1 0.000635 0.0023267 -0.00254 -0.019764 -6.77626e-21 -1.35525e-20 2.16e-11 0 0
3654 1 0.000635 0.00342656 -0.003175 -0.019764 3.09777e-17 4.17463e-17 2.16e-11 1.05285e-24 6.46435e-36
3741 1 0.000635 0.00452641 -0.00254 -0.019764 4.13115e-17 -1.19382e-17 2.16e-11 5.26426e-25 1.93931e-35
3827 1 0.000635 0.00562626 -0.003175 -0.019764 -1.44595e-16 4.77053e-17 2.16e-11 5.26426e-25 3.55539e-35
3913 1 0.000635 0.00672611 -0.00254 -0.019764 7.23095e-17 -5.97502e-18 2.16e-11 0 1.61609e-35
3998 1 0.000635 0.00782597 -0.003175 -0.019764 0 3.57823e-17 2.16e-11 1.05285e-24 3.23218e-36
4084 1 0.000635 0.00892582 -0.00254 -0.019764 -8.47033e-21 -1.27055e-20 2.16e-11 0 0
4169 1 0.000635 0.0100257 -0.003175 -0.019764 1.3427e-16 4.1748e-17 2.16e-11 5.26426e-25 5.81792e-35
4255 1 0.000635 0.0111255 -0.00254 -0.019764 1.76719e-07 -2.95524e-08 -5.30278e-06 2.7087e-10 6.33506e-35
4339 1 0.000635 0.0122254 -0.003175 -0.019764 4.22184e-05 5.39033e-06 1.95894e-05 3.50667e-10 6.27233e-12
2451 1 0.000635 -0.0119714 -0.001905 -0.019764 7.498e-06 3.27595e-05 8.14343e-06 5.11557e-10 9.87206e-12
2536 1 0.000635 -0.0108715 -0.00127 -0.019764 -2.88801e-07 -1.17357e-08 -6.67465e-06 4.34044e-10 6.33506e-35
2621 1 0.000635 -0.00977167 -0.001905 -0.019764 -1.44592e-16 -1.19229e-17 2.16e-11 5.26426e-25 6.39971e-35
2707 1 0.000635 -0.00867182 -0.00127 -0.019764 -7.2301e-17 5.96909e-18 2.16e-11 5.26426e-25 1.61609e-35
2792 1 0.000635 -0.00757197 -0.001905 -0.019764 1.44605e-16 -1.19229e-17 2.16e-11 0 3.29682e-35
2878 1 0.000635 -0.00647211 -0.00127 -0.019764 -1.44605e-16 1.19331e-17 2.16e-11 0 3.23218e-35
2963 1 0.000635 -0.00537226 -0.001905 -0.019764 1.44602e-16 -1.19246e-17 2.16e-11 0 3.29682e-35
3050 1 0.000635 -0.00427241 -0.00127 -0.019764 -1.13613e-16 5.96993e-18 2.16e-11 0 2.13324e-35
3136 1 0.000635 -0.00317256 -0.001905 -0.019764 4.13081e-17 -1.19229e-17 2.16e-11 0 5.81792e-36
3223 1 0.000635 -0.0020727 -0.00127 -0.019764 0 7.6233e-21 2.16e-11 0 0
3309 1 0.000635 -0.000972852 -0.001905 -0.019764 0 -1.19229e-17 2.16e-11 0 6.46435e-37
3396 1 0.000635 0.000127 -0.00127 -0.019764 0 6.77626e-21 2.16e-11 0 0
3482 1 0.000635 0.00122685 -0.001905 -0.019764 0 -1.19229e-17 2.16e-11 0 6.46435e-37
3569 1 0.000635 0.0023267 -0.00127 -0.019764 -6.77626e-21 6.77626e-21 2.16e-11 0 0
3655 1 0.000635 0.00342656 -0.001905 -0.019764 2.06608e-17 -1.19229e-17 2.16e-11 0 1.93931e-36
3742 1 0.000635 0.00452641 -0.00127 -0.019764 4.13149e-17 1.19331e-17 2.16e-11 5.26426e-25 1.93931e-35
3828 1 0.000635 0.00562626 -0.001905 -0.019764 -1.44599e-16 -1.19229e-17 2.16e-11 0 3.29682e-35
3914 1 0.000635 0.00672611 -0.00127 -0.019764 7.23078e-17 5.96909e-18 2.16e-11 5.26426e-25 1.61609e-35
3999 1 0.000635 0.00782597 -0.001905 -0.019764 -6.77626e-21 -1.19229e-17 2.16e-11 5.26426e-25 6.46435e-37
4085 1 0.000635 0.00892582 -0.00127 -0.019764 -6.77626e-21 6.77626e-21 2.16e-11 0 0
4170 1 0.000635 0.0100257 -0.001905 -0.019764 1.44599e-16 -1.19229e-17 2.16e-11 0 6.39971e-35
4256 1 0.000635 0.0111255 -0.00127 -0.019764 1.89847e-07 -3.49859e-10 -5.42009e-06 2.83189e-10 6.33506e-35
4340 1 0.000635 0.0122254 -0.001905 -0.019764 4.15397e-06 7.9168e-06 9.73871e-06 3.45465e-10 6.52836e-13
2452 1 0.000635 -0.0119714 -0.000635 -0.019764 -1.88246e-06 8.69668e-06 1.17926e-05 5.00871e-10 7.22683e-13
2622 1 0.000635 -0.00977167 -0.000635 -0.019764 -1.44599e-16 -8.47033e-21 2.16e-11 0 6.33506e-35
2793 1 0.000635 -0.00757197 -0.000635 -0.019764 1.44604e-16 -1.19339e-17 2.16e-11 5.26426e-25 3.23218e-35
2964 1 0.000635 -0.00537226 -0.000635 -0.019764 1.44604e-16 -1.19365e-17 2.16e-11 0 3.23218e-35
3137 1 0.000635 -0.00317256 -0.000635 -0.019764 4.13183e-17 -8.47033e-21 2.16e-11 0 5.17148e-36
3310 1 0.000635 -0.000972852 -0.000635 -0.019764 0 -8.47033e-21 2.16e-11 0 0
3483 1 0.000635 0.00122685 -0.000635 -0.019764 0 -8.47033e-21 2.16e-11 0 0
3656 1 0.000635 0.00342656 -0.000635 -0.019764 3.09811e-17 -5.97078e-18 2.16e-11 5.26426e-25 3.23218e-36
3829 1 0.000635 0.00562626 -0.000635 -0.019764 -1.44597e-16 -1.19339e-17 2.16e-11 5.26426e-25 3.23218e-35
4000 1 0.000635 0.00782597 -0.000635 -0.019764 0 -8.47033e-21 2.16e-11 0 0
4171 1 0.000635 0.0100257 -0.000635 -0.019764 1.44599e-16 -8.47033e-21 2.16e-11 0 6.33506e-35
4341 1 0.000635 0.0122254 -0.000635 -0.019764 1.44391e-07 2.87446e-06 8.13412e-06 3.58146e-10 7.76169e-14
2453 1 0.000635 -0.0119714 0.000635 -0.019764 -1.85854e-06 -8.59084e-06 1.17815e-05 5.00806e-10 7.05487e-13
2537 1 0.000635 -0.0108715 0 -0.019764 -2.90888e-07 1.06856e-10 -6.68394e-06 4.35319e-10 6.33506e-35
2623 1 0.000635 -0.00977167 0.000635 -0.019764 -1.44599e-16 -3.38813e-21 2.16e-11 0 6.33506e-35
2708 1 0.000635 -0.00867182 0 -0.019764 -8.26247e-17 5.92923e-21 2.16e-11 0 2.06859e-35
2794 1 0.000635 -0.00757197 0.000635 -0.019764 1.44602e-16 -3.38813e-21 2.16e-11 0 3.23218e-35
2879 1 0.000635 -0.00647211 0 -0.019764 -1.44605e-16 5.0822e-21 2.16e-11 0 3.23218e-35
2965 1 0.000635 -0.00537226 0.000635 -0.019764 1.44602e-16 -3.38813e-21 2.16e-11 0 3.23218e-35
3051 1 0.000635 -0.00427241 0 -0.019764 -1.03282e-16 5.92923e-21 2.16e-11 0 1.68073e-35
3138 1 0.000635 -0.00317256 0.000635 -0.019764 4.13149e-17 -3.38813e-21 2.16e-11 0 5.17148e-36
3224 1 0.000635 -0.0020727 0 -0.019764 0 6.77626e-21 2.16e-11 0 0
3311 1 0.000635 -0.000972852 0.000635 -0.019764 0 -3.38813e-21 2.16e-11 0 0
3397 1 0.000635 0.000127 0 -0.019764 0 6.77626e-21 2.16e-11 0 0
3484 1 0.000635 0.00122685 0.000635 -0.019764 0 -3.38813e-21 2.16e-11 0 0
3570 1 0.000635 0.0023267 0 -0.019764 -3.38813e-21 5.0822e-21 2.16e-11 5.26426e-25 0
3657 1 0.000635 0.00342656 0.000635 -0.019764 2.06574e-17 -3.38813e-21 2.16e-11 0 1.29287e-36
3743 1 0.000635 0.00452641 0 -0.019764 4.13132e-17 5.92923e-21 2.16e-11 0 1.29287e-35
3830 1 0.000635 0.00562626 0.000635 -0.019764 -1.44595e-16 -3.38813e-21 2.16e-11 0 3.23218e-35
3915 1 0.000635 0.00672611 0 -0.019764 8.26315e-17 5.92923e-21 2.16e-11 0 2.06859e-35
4001 1 0.000635 0.00782597 0.000635 -0.019764 0 -3.38813e-21 2.16e-11 0 0
4086 1 0.000635 0.00892582 0 -0.019764 -6.77626e-21 6.77626e-21 2.16e-11 0 0
4172 1 0.000635 0.0100257 0.000635 -0.019764 1.44599e-16 -3.38813e-21 2.16e-11 0 6.33506e-35
4257 1 0.000635 0.0111255 0 -0.019764 1.90166e-07 -7.37071e-11 -5.41049e-06 2.82166e-10 6.33506e-35
4342 1 0.000635 0.0122254 0.000635 -0.019764 1.44416e-07 -2.89589e-06 8.13573e-06 3.58191e-10 7.87507e-14
2454 1 0.000635 -0.0119714 0.001905 -0.019764 7.56877e-06 -3.26599e-05 8.11235e-06 5.11383e-10 9.81584e-12
2538 1 0.000635 -0.0108715 0.00127 -0.019764 -2.88639e-07 1.19593e-08 -6.67283e-06 4.338e-10 6.33506e-35
2624 1 0.000635 -0.00977167 0.001905 -0.019764 -1.44595e-16 1.19221e-17 2.16e-11 0 6.39971e-35
2709 1 0.000635 -0.00867182 0.00127 -0.019764 -8.26264e-17 0 2.16e-11 0 2.06859e-35
2795 1 0.000635 -0.00757197 0.001905 -0.019764 1.44604e-16 1.19221e-17 2.16e-11 0 3.29682e-35
2880 1 0.000635 -0.00647211 0.00127 -0.019764 -1.44605e-16 0 2.16e-11 0 3.23218e-35
2966 1 0.000635 -0.00537226 0.001905 -0.019764 1.44604e-16 1.19238e-17 2.16e-11 0 3.29682e-35
3052 1 0.000635 -0.00427241 0.00127 -0.019764 -1.0328e-16 0 2.16e-11 0 1.68073e-35
3139 1 0.000635 -0.00317256 0.001905 -0.019764 4.13115e-17 1.19229e-17 2.16e-11 0 5.81792e-36
3225 1 0.000635 -0.0020727 0.00127 -0.019764 0 0 2.16e-11 0 0
3312 1 0.000635 -0.000972852 0.001905 -0.019764 0 1.19212e-17 2.16e-11 0 6.46435e-37
3398 1 0.000635 0.000127 0.00127 -0.019764 0 0 2.16e-11 0 0
3485 1 0.000635 0.00122685 0.001905 -0.019764 0 1.19212e-17 2.16e-11 0 6.46435e-37
3571 1 0.000635 0.0023267 0.00127 -0.019764 -6.77626e-21 0 2.16e-11 0 0
3658 1 0.000635 0.00342656 0.001905 -0.019764 2.06591e-17 1.19221e-17 2.16e-11 0 1.93931e-36
3744 1 0.000635 0.00452641 0.00127 -0.019764 4.13115e-17 0 2.16e-11 0 1.29287e-35
3831 1 0.000635 0.00562626 0.001905 -0.019764 -1.44597e-16 1.19221e-17 2.16e-11 0 3.29682e-35
3916 1 0.000635 0.00672611 0.00127 -0.019764 8.26331e-17 0 2.16e-11 0 2.06859e-35
4002 1 0.000635 0.00782597 0.001905 -0.019764 -3.38813e-21 1.19221e-17 2.16e-11 0 6.46435e-37
4087 1 0.000635 0.00892582 0.00127 -0.019764 -6.77626e-21 0 2.16e-11 0 0
4173 1 0.000635 0.0100257 0.001905 -0.019764 1.44599e-16 1.19212e-17 2.16e-11 0 6.39971e-35
4258 1 0.000635 0.0111255 0.00127 -0.019764 1.89932e-07 2.12772e-10 -5.42132e-06 2.83321e-10 6.33506e-35
4343 1 0.000635 0.0122254 0.001905 -0.019764 4.15466e-06 -7.95084e-06 9.74386e-06 3.45613e-10 6.57827e-13
2455 1 0.000635 -0.0119714 0.003175 -0.019764 4.20332e-05 -7.89113e-05 -5.59914e-06 5.4969e-10 6.23574e-11
2539 1 0.000635 -0.0108715 0.00254 -0.019764 -2.86849e-07 2.36527e-08 -6.6845e-06 4.35308e-10 6.33506e-35
2625 1 0.000635 -0.00977167 0.003175 -0.019764 -1.3427e-16 -4.1748e-17 2.16e-11 5.26426e-25 5.81792e-35
2710 1 0.000635 -0.00867182 0.00254 -0.019764 -7.2301e-17 5.97417e-18 2.16e-11 0 1.61609e-35
2796 1 0.000635 -0.00757197 0.003175 -0.019764 1.44602e-16 -4.77053e-17 2.16e-11 5.26426e-25 3.55539e-35
2881 1 0.000635 -0.00647211 0.00254 -0.019764 -1.44605e-16 1.19365e-17 2.16e-11 0 3.23218e-35
2967 1 0.000635 -0.00537226 0.003175 -0.019764 1.44604e-16 -4.7707e-17 2.16e-11 0 3.55539e-35
3053 1 0.000635 -0.00427241 0.00254 -0.019764 -1.03284e-16 1.19373e-17 2.16e-11 5.26426e-25 1.93931e-35
3140 1 0.000635 -0.00317256 0.003175 -0.019764 3.09963e-17 -4.17472e-17 2.16e-11 1.05285e-24 6.46435e-36
3226 1 0.000635 -0.0020727 0.00254 -0.019764 0 1.43996e-20 2.16e-11 0 0
3313 1 0.000635 -0.000972852 0.003175 -0.019764 0 -3.57823e-17 2.16e-11 1.05285e-24 3.23218e-36
3399 1 0.000635 0.000127 0.00254 -0.019764 0 1.35525e-20 2.16e-11 0 0
3486 1 0.000635 0.00122685 0.003175 -0.019764 0 -3.57823e-17 2.16e-11 1.05285e-24 3.23218e-36
3572 1 0.000635 0.0023267 0.00254 -0.019764 -6.77626e-21 1.35525e-20 2.16e-11 0 0
3659 1 0.000635 0.00342656 0.003175 -0.019764 3.09777e-17 -4.17463e-17 2.16e-11 1.05285e-24 6.46435e-36
3745 1 0.000635 0.00452641 0.00254 -0.019764 4.13115e-17 1.19382e-17 2.16e-11 5.26426e-25 1.93931e-35
3832 1 0.000635 0.00562626 0.003175 -0.019764 -1.44595e-16 -4.77053e-17 2.16e-11 5.26426e-25 3.55539e-35
3917 1 0.000635 0.00672611 0.00254 -0.019764 7.23095e-17 5.97502e-18 2.16e-11 0 1.61609e-35
4003 1 0.000635 0.00782597 0.003175 -0.019764 0 -3.57823e-17 2.16e-11 1.05285e-24 3.23218e-36
4088 1 0.000635 0.00892582 0.00254 -0.019764 -8.47033e-21 1.27055e-20 2.16e-11 0 0
4174 1 0.000635 0.0100257 0.003175 -0.019764 1.3427e-16 -4.1748e-17 2.16e-11 5.26426e-25 5.81792e-35
4259 1 0.000635 0.0111255 0.00254 -0.019764 1.76859e-07 2.94846e-08 -5.3049e-06 2.7109e-10 6.33506e-35
4344 1 0.000635 0.0122254 0.003175 -0.019764 4.2272e-05 -5.42771e-06 1.96184e-05 3.50895e-10 6.29194e-12
2456 1 0.000635 -0.0119714 0.004445 -0.019764 -0.00017685 0.0001236 7.55449e-05 4.79115e-10 1.5567e-10
2540 1 0.000635 -0.0108715 0.00381 -0.019764 -2.36688e-07 1.20795e-07 -6.40683e-06 3.99207e-10 4.65433e-35
2626 1 0.000635 -0.00977167 0.004445 -0.019764 -5.05796e-09 -8.76064e-09 -4.27886e-07 3.46344e-12 6.01185e-35
2711 1 0.000635 -0.00867182 0.00381 -0.019764 -8.2623e-17 0 2.16e-11 1.05285e-24 2.06859e-35
2797 1 0.000635 -0.00757197 0.004445 -0.019764 1.44602e-16 5.96282e-17 2.16e-11 5.26426e-25 3.74932e-35
2882 1 0.000635 -0.00647211 0.00381 -0.019764 -1.44605e-16 0 2.16e-11 0 3.23218e-35
2968 1 0.000635 -0.00537226 0.004445 -0.019764 1.44604e-16 5.9629e-17 2.16e-11 5.26426e-25 3.74932e-35
3054 1 0.000635 -0.00427241 0.00381 -0.019764 -1.03291e-16 0 2.16e-11 0 1.68073e-35
3141 1 0.000635 -0.00317256 0.004445 -0.019764 3.09963e-17 5.36693e-17 2.16e-11 1.57928e-24 8.40366e-36
3227 1 0.000635 -0.0020727 0.00381 -0.019764 -6.77626e-21 0 2.16e-11 2.10571e-24 0
3314 1 0.000635 -0.000972852 0.004445 -0.019764 0 4.77053e-17 2.16e-11 1.05285e-24 5.17148e-36
3400 1 0.000635 0.000127 0.00381 -0.019764 0 0 2.16e-11 1.05285e-24 0
3487 1 0.000635 0.00122685 0.004445 -0.019764 0 4.77053e-17 2.16e-11 1.05285e-24 5.17148e-36
3573 1 0.000635 0.0023267 0.00381 -0.019764 0 0 2.16e-11 2.10571e-24 0
3660 1 0.000635 0.00342656 0.004445 -0.019764 3.09811e-17 5.36701e-17 2.16e-11 1.05285e-24 8.40366e-36
3746 1 0.000635 0.00452641 0.00381 -0.019764 4.13217e-17 0 2.16e-11 0 1.29287e-35
3833 1 0.000635 0.00562626 0.004445 -0.019764 -1.44597e-16 5.9629e-17 2.16e-11 5.26426e-25 3.74932e-35
3918 1 0.000635 0.00672611 0.00381 -0.019764 8.26298e-17 0 2.16e-11 1.05285e-24 2.06859e-35
4004 1 0.000635 0.00782597 0.004445 -0.019764 -3.38813e-21 4.77061e-17 2.16e-11 1.05285e-24 5.17148e-36
4089 1 0.000635 0.00892582 0.00381 -0.019764 -6.77626e-21 0 2.16e-11 1.05285e-24 0
4175 1 0.000635 0.0100257 0.004445 -0.019764 2.5269e-08 -4.37673e-08 -5.96719e-07 6.78254e-12 6.01185e-35
4260 1 0.000635 0.0111255 0.00381 -0.019764 1.71772e-07 4.8437e-08 -5.31572e-06 2.72252e-10 4.65433e-35
4345 1 0.000635 0.0122254 0.004445 -0.019764 0.000171692 0.00029141 6.00989e-05 3.26153e-09 4.82683e-10
2541 1 0.000635 -0.0108715 0.00508 -0.019764 -2.27904e-05 1.33375e-05 -3.97706e-06 3.0636e-10 3.09141e-12
2712 1 0.000635 -0.00867182 0.00508 -0.019764 -6.19774e-17 2.3845e-17 2.16e-11 0 1.42216e-35
2883 1 0.000635 -0.00647211 0.00508 -0.019764 -1.44605e-16 2.38442e-17 2.16e-11 0 3.49075e-35
3055 1 0.000635 -0.00427241 0.00508 -0.019764 -1.03287e-16 2.38433e-17 2.16e-11 1.57928e-24 2.45645e-35
3228 1 0.000635 -0.0020727 0.00508 -0.019764 -3.38813e-21 2.38442e-17 2.16e-11 0 2.58574e-36
3401 1 0.000635 0.000127 0.00508 -0.019764 0 2.38442e-17 2.16e-11 0 2.58574e-36
3574 1 0.000635 0.0023267 0.00508 -0.019764 -3.38813e-21 2.38459e-17 2.16e-11 0 2.58574e-36
3747 1 0.000635 0.00452641 0.00508 -0.019764 4.13081e-17 2.38433e-17 2.16e-11 5.26426e-25 2.84431e-35