ITEM: TIMESTEP
1660000
ITEM: NUMBER OF ATOMS
6793
ITEM: BOX BOUNDS ff ff ff
-8.9999999999999997e-02 8.9999999999999997e-02
-8.9999999999999997e-02 8.9999999999999997e-02
-4.0000000000000001e-02 4.0000000000000001e-02
ITEM: ATOMS id type radius x y z fx fy fz c_bendingE c_stretchingE
3385 1 0.000635 0.000116801 -0.0151854 -0.0174455 7.42169e-09 -9.74646e-09 -2.75106e-08 3.19082e-09 7.14159e-11
3213 1 0.000635 -0.0020718 -0.0139546 -0.0177401 2.5981e-09 5.12848e-10 2.10618e-09 5.25323e-09 3.6076e-10
3299 1 0.000635 -0.000974574 -0.0145881 -0.0176941 4.21236e-09 2.47374e-09 -2.39782e-09 4.85512e-09 1.0498e-10
3386 1 0.000635 0.000125688 -0.013964 -0.0177981 6.57507e-09 -1.01123e-08 -4.29964e-08 3.55805e-09 4.18451e-11
3472 1 0.000635 0.0012072 -0.0145371 -0.0174599 9.13152e-09 -1.21371e-08 -3.10455e-08 1.67225e-09 1.71403e-10
3559 1 0.000635 0.00228654 -0.0138703 -0.0174314 3.84298e-09 4.23031e-10 4.98256e-09 6.78756e-10 2.20976e-10
3041 1 0.000635 -0.00426634 -0.0126857 -0.0177457 9.80264e-10 -6.38642e-10 -3.6253e-10 3.33317e-09 1.32758e-10
3127 1 0.000635 -0.00316841 -0.0133197 -0.0177457 2.19893e-09 -2.56316e-10 2.77451e-09 3.97362e-09 3.41538e-10
3214 1 0.000635 -0.0020727 -0.0127 -0.017928 -9.59382e-05 2.18911e-05 -7.03506e-06 4.52375e-09 7.83337e-11
3300 1 0.000635 -0.000973392 -0.0133354 -0.0179036 2.75568e-09 1.66761e-10 1.76982e-10 3.51538e-09 5.05045e-11
3387 1 0.000635 0.000127 -0.0127 -0.017928 -5.81048e-05 -5.43279e-05 1.0676e-06 3.69154e-10 1.89639e-11
3473 1 0.000635 0.00122571 -0.0133339 -0.0178722 -9.07231e-10 7.06752e-09 3.68427e-08 4.6629e-10 1.58857e-10
3560 1 0.000635 0.0023267 -0.0127 -0.017928 7.23923e-05 -0.000228381 0.000114382 5.92906e-10 2.50272e-10
3646 1 0.000635 0.00340047 -0.01328 -0.0175645 2.13809e-09 -1.2387e-10 -3.61368e-10 5.74923e-10 2.95013e-10
3733 1 0.000635 0.00450947 -0.0126668 -0.017643 1.79126e-09 -7.1539e-10 -1.16882e-09 3.85395e-10 4.54035e-11
3819 1 0.000635 0.00557696 -0.0132305 -0.0172453 3.76945e-09 -3.96894e-09 -6.29895e-09 1.38559e-10 2.91235e-11
3905 1 0.000635 0.00668747 -0.0126218 -0.0173364 4.57913e-09 -5.14749e-09 -1.06547e-08 1.54772e-10 6.26064e-12
2870 1 0.000635 -0.00646351 -0.011417 -0.0177454 -2.75395e-10 -1.40824e-09 -3.96496e-09 2.59154e-09 5.90191e-11
2955 1 0.000635 -0.00536475 -0.0120514 -0.0177455 1.25144e-09 -8.49513e-10 -1.21104e-09 2.89473e-09 6.26719e-11
3042 1 0.000635 -0.00427241 -0.01143 -0.017928 1.53761e-06 6.2254e-05 -1.75903e-05 2.60116e-09 1.83465e-11
3128 1 0.000635 -0.00317256 -0.012065 -0.017928 -3.90495e-05 9.30181e-05 -2.02037e-05 3.27105e-09 7.0849e-11
3215 1 0.000635 -0.0020727 -0.01143 -0.017928 3.33005e-08 -7.15675e-08 -3.26618e-06 1.01501e-10 5.17148e-36
3301 1 0.000635 -0.000972852 -0.012065 -0.017928 2.83867e-08 -3.67712e-05 -2.59753e-06 1.05393e-10 6.1106e-12
3388 1 0.000635 0.000127 -0.01143 -0.017928 1.15639e-08 0 -1.14504e-06 2.48455e-11 5.17148e-36
3474 1 0.000635 0.00122685 -0.012065 -0.017928 -2.74831e-08 -9.16361e-06 -5.20231e-06 3.97939e-10 3.51416e-13
3561 1 0.000635 0.0023267 -0.01143 -0.017928 2.64462e-07 -1.54594e-07 -6.88416e-06 5.00208e-10 5.17148e-36
3647 1 0.000635 0.00342656 -0.012065 -0.017928 6.08391e-05 4.70703e-05 -6.50751e-07 4.52771e-10 5.35831e-11
3734 1 0.000635 0.00452641 -0.01143 -0.017928 2.44446e-05 2.13005e-05 3.19449e-06 3.15604e-10 9.36665e-12
3820 1 0.000635 0.00561423 -0.0120425 -0.0176919 -9.45815e-10 5.08948e-09 2.06924e-08 2.95341e-10 8.21488e-12
3906 1 0.000635 0.00671729 -0.011414 -0.017728 1.38721e-09 -7.9669e-10 -1.7137e-09 2.45412e-10 1.74128e-12
3991 1 0.000635 0.00779685 -0.01201 -0.0174241 1.44011e-09 2.5679e-09 6.80773e-09 2.48411e-09 9.03405e-11
2785 1 0.000635 -0.00756236 -0.0107823 -0.0177441 2.10221e-10 -1.51364e-09 -2.67824e-09 2.37856e-09 8.72758e-11
2956 1 0.000635 -0.00537226 -0.010795 -0.017928 3.20892e-05 3.7319e-05 -1.54066e-05 2.15237e-09 9.08318e-12
3129 1 0.000635 -0.00317256 -0.010795 -0.017928 -1.3404e-09 -6.11659e-08 -3.21999e-06 9.86019e-11 6.46435e-36
3302 1 0.000635 -0.000972852 -0.010795 -0.017928 4.75365e-09 0 -2.15007e-07 8.74284e-13 5.17148e-36
3475 1 0.000635 0.00122685 -0.010795 -0.017928 1.01107e-08 -1.69407e-21 -4.91702e-07 4.57343e-12 5.17148e-36
3648 1 0.000635 0.00342656 -0.010795 -0.017928 1.70879e-07 -1.03044e-07 -5.29095e-06 2.82761e-10 1.0343e-35
3821 1 0.000635 0.00562626 -0.010795 -0.017928 1.14752e-05 1.17204e-05 3.49083e-06 2.30351e-10 2.33223e-12
3992 1 0.000635 0.00781993 -0.0107843 -0.0177611 3.17267e-09 -3.46187e-09 -1.69435e-08 1.23354e-09 5.96177e-11
4077 1 0.000635 0.0089009 -0.0113831 -0.0174706 8.95662e-09 -1.12153e-08 -4.18676e-08 2.37157e-09 1.17591e-11
4163 1 0.000635 0.00990301 -0.0106681 -0.0171575 -9.22066e-10 -1.09176e-09 -1.39851e-08 2.70489e-09 2.21907e-11
2615 1 0.000635 -0.00975827 -0.00951041 -0.0177235 8.06068e-10 7.9422e-10 1.85729e-09 2.33051e-09 2.55577e-10
2700 1 0.000635 -0.00866089 -0.010147 -0.0177384 -1.15626e-09 -2.02829e-09 -6.69475e-09 2.26721e-09 1.37134e-10
2786 1 0.000635 -0.00757197 -0.009525 -0.017928 7.90541e-05 3.00469e-06 -1.24205e-05 1.46417e-09 4.74642e-11
2871 1 0.000635 -0.00647211 -0.01016 -0.017928 5.65961e-05 1.80006e-05 -1.36241e-05 1.79423e-09 2.16156e-11
2957 1 0.000635 -0.00537226 -0.009525 -0.017928 -3.90646e-08 -4.7141e-08 -3.23395e-06 9.94835e-11 3.74932e-35
3043 1 0.000635 -0.00427241 -0.01016 -0.017928 -2.29911e-08 -5.3023e-08 -3.22046e-06 9.86364e-11 2.71503e-35
3130 1 0.000635 -0.00317256 -0.009525 -0.017928 2.0671e-17 0 2.16e-11 1.05285e-24 6.46435e-36
3216 1 0.000635 -0.0020727 -0.01016 -0.017928 -6.77626e-21 0 2.16e-11 0 5.17148e-36
3303 1 0.000635 -0.000972852 -0.009525 -0.017928 0 0 2.16e-11 0 5.17148e-36
3389 1 0.000635 0.000127 -0.01016 -0.017928 0 0 2.16e-11 0 5.17148e-36
3476 1 0.000635 0.00122685 -0.009525 -0.017928 0 0 2.16e-11 0 5.17148e-36
3562 1 0.000635 0.0023267 -0.01016 -0.017928 0 0 2.16e-11 0 5.17148e-36
3649 1 0.000635 0.00342656 -0.009525 -0.017928 4.13115e-17 0 2.16e-11 0 1.0343e-35
3735 1 0.000635 0.00452641 -0.01016 -0.017928 1.07929e-07 -7.19592e-08 -4.27815e-06 1.80759e-10 3.10289e-35
3822 1 0.000635 0.00562626 -0.009525 -0.017928 7.86545e-08 -4.75857e-08 -3.55353e-06 1.24023e-10 3.74932e-35
3907 1 0.000635 0.00672611 -0.01016 -0.017928 2.1593e-05 -6.67742e-06 6.01567e-06 1.81897e-10 3.00354e-12
3993 1 0.000635 0.00782597 -0.009525 -0.017928 1.84191e-05 -2.93206e-05 5.04935e-06 4.67175e-10 3.63316e-12
4078 1 0.000635 0.00892128 -0.0101495 -0.0177724 3.17949e-09 -3.49048e-09 -2.21397e-08 2.38344e-09 1.22047e-10
4164 1 0.000635 0.00999994 -0.00949099 -0.0176247 2.11097e-09 -1.04453e-09 -8.06179e-09 2.14853e-09 2.75489e-10
2277 1 0.000635 -0.0141145 -0.00823059 -0.0172658 2.85634e-09 -5.01223e-10 1.64557e-10 5.21179e-09 1.21721e-10
2361 1 0.000635 -0.0129919 -0.00881803 -0.0172053 2.33121e-09 1.77657e-09 3.12791e-09 6.46459e-09 1.9277e-10
2446 1 0.000635 -0.0119561 -0.00824536 -0.0176657 1.68895e-10 -1.56954e-10 -1.78221e-09 3.68288e-09 3.56061e-11
2530 1 0.000635 -0.0108558 -0.00887637 -0.0176998 -1.21568e-09 -2.73131e-09 -9.27246e-09 2.7151e-09 1.10832e-10
2616 1 0.000635 -0.00977167 -0.008255 -0.017928 -3.55164e-05 -0.000103343 2.18879e-05 8.04197e-10 6.10258e-11
2701 1 0.000635 -0.00867182 -0.00889 -0.017928 0.00010688 -9.04965e-06 -1.28983e-05 1.13185e-09 9.37449e-11
2787 1 0.000635 -0.00757197 -0.008255 -0.017928 -5.8413e-08 -4.54329e-08 -3.42828e-06 1.1224e-10 4.0079e-35
2872 1 0.000635 -0.00647211 -0.00889 -0.017928 -5.03101e-08 -4.42731e-08 -3.28432e-06 1.02678e-10 3.74932e-35
2958 1 0.000635 -0.00537226 -0.008255 -0.017928 1.44607e-16 -7.15799e-17 2.16e-11 5.26426e-25 4.0079e-35
3044 1 0.000635 -0.00427241 -0.00889 -0.017928 -1.03289e-16 -4.76841e-17 2.16e-11 1.05285e-24 2.71503e-35
3131 1 0.000635 -0.00317256 -0.008255 -0.017928 3.09912e-17 -7.75431e-17 2.16e-11 5.26426e-25 1.87466e-35
3217 1 0.000635 -0.0020727 -0.00889 -0.017928 -3.38813e-21 -4.76866e-17 2.16e-11 0 5.17148e-36
3304 1 0.000635 -0.000972852 -0.008255 -0.017928 0 -7.15833e-17 2.16e-11 0 1.0343e-35
3390 1 0.000635 0.000127 -0.00889 -0.017928 0 -4.76866e-17 2.16e-11 0 5.17148e-36
3477 1 0.000635 0.00122685 -0.008255 -0.017928 0 -7.15833e-17 2.16e-11 0 1.0343e-35
3563 1 0.000635 0.0023267 -0.00889 -0.017928 0 -4.76858e-17 2.16e-11 0 5.17148e-36
3650 1 0.000635 0.00342656 -0.008255 -0.017928 4.13098e-17 -7.15825e-17 2.16e-11 0 1.0343e-35
3736 1 0.000635 0.00452641 -0.00889 -0.017928 4.13115e-17 -4.76841e-17 2.16e-11 0 3.10289e-35
3823 1 0.000635 0.00562626 -0.008255 -0.017928 -1.446e-16 -7.15791e-17 2.16e-11 0 4.0079e-35
3908 1 0.000635 0.00672611 -0.00889 -0.017928 4.76416e-08 -5.23178e-08 -3.13518e-06 9.5019e-11 1.68073e-35
3994 1 0.000635 0.00782597 -0.008255 -0.017928 -2.0086e-08 -1.26922e-07 -4.15068e-06 1.79232e-10 1.0343e-35
4079 1 0.000635 0.00892582 -0.00889 -0.017928 -0.000109115 0.000113007 -3.87887e-05 1.18235e-09 8.93912e-11
4165 1 0.000635 0.0100257 -0.008255 -0.017928 0.000444947 7.69942e-05 0.000135467 1.69187e-09 1.21914e-09
4250 1 0.000635 0.0109784 -0.00876791 -0.0172617 4.3351e-09 -1.31287e-09 -9.41878e-09 2.28e-09 6.65615e-11
2278 1 0.000635 -0.0140749 -0.00696488 -0.0171996 -8.56914e-09 1.41882e-09 -2.17786e-08 4.28449e-09 1.586e-10
2362 1 0.000635 -0.0130534 -0.00761039 -0.017592 2.03199e-10 4.20032e-10 -2.53497e-09 3.02737e-09 1.23734e-10
2447 1 0.000635 -0.0119676 -0.00698384 -0.0178086 9.34916e-10 -6.94075e-10 -4.01457e-09 4.6079e-10 1.21395e-10
2531 1 0.000635 -0.0108709 -0.00761962 -0.0178801 1.78679e-09 5.08141e-10 1.45028e-08 5.50883e-10 2.2825e-11
2617 1 0.000635 -0.00977167 -0.006985 -0.017928 -6.74777e-06 -3.83517e-06 -2.57346e-06 1.09992e-10 2.64349e-13
2702 1 0.000635 -0.00867182 -0.00762 -0.017928 -7.89157e-08 -3.01157e-08 -3.68287e-06 1.3039e-10 2.9736e-35
2788 1 0.000635 -0.00757197 -0.006985 -0.017928 1.44605e-16 -2.38958e-17 2.16e-11 0 4.0079e-35
2873 1 0.000635 -0.00647211 -0.00762 -0.017928 -1.44609e-16 2.38967e-17 2.16e-11 0 4.0079e-35
2959 1 0.000635 -0.00537226 -0.006985 -0.017928 1.44605e-16 -2.38958e-17 2.16e-11 0 4.0079e-35
3045 1 0.000635 -0.00427241 -0.00762 -0.017928 -1.13623e-16 2.98573e-17 2.16e-11 0 2.90896e-35
3132 1 0.000635 -0.00317256 -0.006985 -0.017928 3.09912e-17 -2.98573e-17 2.16e-11 0 1.87466e-35
3218 1 0.000635 -0.0020727 -0.00762 -0.017928 -1.69407e-21 2.38958e-17 2.16e-11 0 1.0343e-35
3305 1 0.000635 -0.000972852 -0.006985 -0.017928 0 -2.38967e-17 2.16e-11 0 1.0343e-35
3391 1 0.000635 0.000127 -0.00762 -0.017928 0 2.38967e-17 2.16e-11 0 1.0343e-35
3478 1 0.000635 0.00122685 -0.006985 -0.017928 0 -2.38967e-17 2.16e-11 0 1.0343e-35
3564 1 0.000635 0.0023267 -0.00762 -0.017928 0 2.38967e-17 2.16e-11 0 1.0343e-35
3651 1 0.000635 0.00342656 -0.006985 -0.017928 4.13081e-17 -2.38967e-17 2.16e-11 0 1.0343e-35
3737 1 0.000635 0.00452641 -0.00762 -0.017928 4.13217e-17 2.38958e-17 2.16e-11 0 2.06859e-35
3824 1 0.000635 0.00562626 -0.006985 -0.017928 -1.44599e-16 -2.3895e-17 2.16e-11 0 4.0079e-35
3909 1 0.000635 0.00672611 -0.00762 -0.017928 6.19757e-17 2.38958e-17 2.16e-11 0 2.9736e-35
3995 1 0.000635 0.00782597 -0.006985 -0.017928 -6.77626e-21 -2.38967e-17 2.16e-11 0 1.0343e-35
4080 1 0.000635 0.00892582 -0.00762 -0.017928 -1.01668e-07 -2.45436e-07 -7.24642e-06 7.41789e-10 1.0343e-35
4166 1 0.000635 0.0100257 -0.006985 -0.017928 -0.000112702 6.42151e-05 -2.51723e-05 1.3196e-09 7.90693e-11
4251 1 0.000635 0.011116 -0.00760865 -0.0177574 1.50037e-09 8.54027e-10 -2.56243e-09 2.08513e-09 1.89394e-09
4336 1 0.000635 0.0121475 -0.00692181 -0.0174491 -2.14026e-09 3.52767e-09 1.01341e-08 2.54398e-09 1.54656e-09
2363 1 0.000635 -0.0130427 -0.00634154 -0.0176025 8.51747e-09 -3.12906e-10 2.25675e-08 5.62175e-10 1.37577e-10
2448 1 0.000635 -0.0119704 -0.00571566 -0.0178786 8.64095e-10 6.39568e-10 4.67102e-09 3.866e-10 1.32932e-10
2532 1 0.000635 -0.0108715 -0.00635 -0.017928 -7.1586e-05 -8.35501e-05 9.25153e-06 1.55147e-10 4.63875e-11
2618 1 0.000635 -0.00977167 -0.005715 -0.017928 -3.94755e-09 6.83735e-09 -1.05121e-06 2.0931e-11 6.85221e-35
2703 1 0.000635 -0.00867182 -0.00635 -0.017928 -3.35973e-11 5.81922e-11 -4.2261e-07 3.37666e-12 2.9736e-35
2789 1 0.000635 -0.00757197 -0.005715 -0.017928 1.44602e-16 4.76832e-17 2.16e-11 0 3.74932e-35
2874 1 0.000635 -0.00647211 -0.00635 -0.017928 -1.44609e-16 7.15816e-17 2.16e-11 0 4.0079e-35
2960 1 0.000635 -0.00537226 -0.005715 -0.017928 1.44604e-16 4.76841e-17 2.16e-11 5.26426e-25 3.74932e-35
3046 1 0.000635 -0.00427241 -0.00635 -0.017928 -1.13621e-16 7.75431e-17 2.16e-11 0 2.90896e-35
3133 1 0.000635 -0.00317256 -0.005715 -0.017928 2.0671e-17 4.76858e-17 2.16e-11 5.26426e-25 6.46435e-36
3219 1 0.000635 -0.0020727 -0.00635 -0.017928 -5.0822e-21 7.15842e-17 2.16e-11 0 1.0343e-35
3306 1 0.000635 -0.000972852 -0.005715 -0.017928 0 4.76866e-17 2.16e-11 0 5.17148e-36
3392 1 0.000635 0.000127 -0.00635 -0.017928 0 7.1585e-17 2.16e-11 0 1.0343e-35
3479 1 0.000635 0.00122685 -0.005715 -0.017928 0 4.76866e-17 2.16e-11 0 5.17148e-36
3565 1 0.000635 0.0023267 -0.00635 -0.017928 0 7.15842e-17 2.16e-11 0 1.0343e-35
3652 1 0.000635 0.00342656 -0.005715 -0.017928 4.13098e-17 4.76858e-17 2.16e-11 0 1.0343e-35
3738 1 0.000635 0.00452641 -0.00635 -0.017928 4.13183e-17 7.15816e-17 2.16e-11 0 2.06859e-35
3825 1 0.000635 0.00562626 -0.005715 -0.017928 -1.44597e-16 4.76841e-17 2.16e-11 0 3.74932e-35
3910 1 0.000635 0.00672611 -0.00635 -0.017928 6.19774e-17 7.15825e-17 2.16e-11 0 2.9736e-35
3996 1 0.000635 0.00782597 -0.005715 -0.017928 -6.77626e-21 4.76849e-17 2.16e-11 0 5.17148e-36
4081 1 0.000635 0.00892582 -0.00635 -0.017928 -2.23562e-08 -3.8722e-08 -1.50767e-06 4.31912e-11 1.0343e-35
4167 1 0.000635 0.0100257 -0.005715 -0.017928 -6.98221e-08 -1.20935e-07 -4.23967e-06 3.53208e-10 6.85221e-35
4252 1 0.000635 0.0111255 -0.00635 -0.017928 -0.000407461 -5.02133e-06 -0.000109018 1.90428e-09 5.51512e-10
4337 1 0.000635 0.0122206 -0.00571811 -0.0178653 -2.26547e-09 2.23605e-09 1.88436e-08 2.76636e-09 1.20008e-09
2364 1 0.000635 -0.0130253 -0.00507333 -0.0175905 -3.69506e-09 4.23638e-10 -7.05383e-09 4.74531e-10 3.15898e-10
2533 1 0.000635 -0.0108715 -0.00508 -0.017928 -2.03538e-05 -1.19177e-05 -3.87514e-06 2.86048e-10 2.4629e-12
2704 1 0.000635 -0.00867182 -0.00508 -0.017928 -6.19774e-17 -2.3845e-17 2.16e-11 0 1.42216e-35
2875 1 0.000635 -0.00647211 -0.00508 -0.017928 -1.44605e-16 -2.38442e-17 2.16e-11 0 3.49075e-35
3047 1 0.000635 -0.00427241 -0.00508 -0.017928 -1.03287e-16 -2.38433e-17 2.16e-11 1.57928e-24 2.45645e-35
3220 1 0.000635 -0.0020727 -0.00508 -0.017928 -3.38813e-21 -2.38442e-17 2.16e-11 0 2.58574e-36
3393 1 0.000635 0.000127 -0.00508 -0.017928 0 -2.38442e-17 2.16e-11 0 2.58574e-36
3566 1 0.000635 0.0023267 -0.00508 -0.017928 -3.38813e-21 -2.38459e-17 2.16e-11 0 2.58574e-36
3739 1 0.000635 0.00452641 -0.00508 -0.017928 4.13081e-17 -2.38433e-17 2.16e-11 5.26426e-25 2.84431e-35
3911 1 0.000635 0.00672611 -0.00508 -0.017928 6.19859e-17 -2.38442e-17 2.16e-11 0 1.42216e-35
4082 1 0.000635 0.00892582 -0.00508 -0.017928 -8.47033e-21 -2.3845e-17 2.16e-11 0 2.58574e-36
4253 1 0.000635 0.0111255 -0.00508 -0.017928 -4.72724e-05 2.68862e-05 -1.27373e-05 1.28934e-09 1.37439e-11
4422 1 0.000635 0.0132935 -0.00507816 -0.0176544 5.46285e-10 -1.20904e-09 -1.24397e-09 3.54568e-09 2.97909e-10
2365 1 0.000635 -0.0130082 -0.00380682 -0.0175621 1.04173e-08 -7.12236e-10 2.48905e-08 5.51978e-10 2.33655e-10
2449 1 0.000635 -0.0119714 -0.004445 -0.017928 -0.000174519 -0.000122103 7.16414e-05 4.61034e-10 1.49954e-10
2534 1 0.000635 -0.0108715 -0.00381 -0.017928 -2.18547e-07 -1.16403e-07 -6.18107e-06 3.70822e-10 4.65433e-35
2619 1 0.000635 -0.00977167 -0.004445 -0.017928 -4.72747e-09 8.18822e-09 -4.35127e-07 3.58139e-12 6.01185e-35
2705 1 0.000635 -0.00867182 -0.00381 -0.017928 -8.2623e-17 0 2.16e-11 1.05285e-24 2.06859e-35
2790 1 0.000635 -0.00757197 -0.004445 -0.017928 1.44602e-16 -5.96282e-17 2.16e-11 5.26426e-25 3.74932e-35
2876 1 0.000635 -0.00647211 -0.00381 -0.017928 -1.44605e-16 0 2.16e-11 0 3.23218e-35
2961 1 0.000635 -0.00537226 -0.004445 -0.017928 1.44604e-16 -5.9629e-17 2.16e-11 5.26426e-25 3.74932e-35
3048 1 0.000635 -0.00427241 -0.00381 -0.017928 -1.03291e-16 0 2.16e-11 0 1.68073e-35
3134 1 0.000635 -0.00317256 -0.004445 -0.017928 3.09963e-17 -5.36693e-17 2.16e-11 1.57928e-24 8.40366e-36
3221 1 0.000635 -0.0020727 -0.00381 -0.017928 -6.77626e-21 0 2.16e-11 2.10571e-24 0
3307 1 0.000635 -0.000972852 -0.004445 -0.017928 0 -4.77053e-17 2.16e-11 1.05285e-24 5.17148e-36
3394 1 0.000635 0.000127 -0.00381 -0.017928 0 0 2.16e-11 1.05285e-24 0
3480 1 0.000635 0.00122685 -0.004445 -0.017928 0 -4.77053e-17 2.16e-11 1.05285e-24 5.17148e-36
3567 1 0.000635 0.0023267 -0.00381 -0.017928 0 0 2.16e-11 2.10571e-24 0
3653 1 0.000635 0.00342656 -0.004445 -0.017928 3.09811e-17 -5.36701e-17 2.16e-11 1.05285e-24 8.40366e-36
3740 1 0.000635 0.00452641 -0.00381 -0.017928 4.13217e-17 7.70372e-34 2.16e-11 0 1.29287e-35
3826 1 0.000635 0.00562626 -0.004445 -0.017928 -1.44597e-16 -5.9629e-17 2.16e-11 5.26426e-25 3.74932e-35
3912 1 0.000635 0.00672611 -0.00381 -0.017928 8.26298e-17 0 2.16e-11 1.05285e-24 2.06859e-35
3997 1 0.000635 0.00782597 -0.004445 -0.017928 -3.38813e-21 -4.77061e-17 2.16e-11 1.05285e-24 5.17148e-36
4083 1 0.000635 0.00892582 -0.00381 -0.017928 -6.77626e-21 0 2.16e-11 1.05285e-24 0
4168 1 0.000635 0.0100257 -0.004445 -0.017928 2.23456e-08 3.87036e-08 -5.53387e-07 5.82894e-12 6.01185e-35
4254 1 0.000635 0.0111255 -0.00381 -0.017928 1.4786e-07 -3.81857e-08 -4.93119e-06 2.33611e-10 4.65433e-35
4338 1 0.000635 0.0122254 -0.004445 -0.017928 0.000150255 -0.000247509 4.74727e-05 2.91765e-09 3.71774e-10
4423 1 0.000635 0.0132929 -0.00380862 -0.0176581 -5.36086e-09 -6.1636e-10 1.50674e-08 2.15717e-09 1.15069e-10
4507 1 0.000635 0.0143122 -0.00444215 -0.017242 -1.3987e-10 -9.82004e-10 -3.82043e-09 3.45595e-09 1.42633e-11
2366 1 0.000635 -0.0130093 -0.00253834 -0.0175637 1.10769e-09 -1.3056e-09 5.05113e-09 5.12478e-10 6.54865e-11
2450 1 0.000635 -0.0119714 -0.003175 -0.017928 4.31744e-05 7.69203e-05 -6.08255e-06 5.272e-10 5.98433e-11
2535 1 0.000635 -0.0108715 -0.00254 -0.017928 -2.68638e-07 -2.5482e-08 -6.47386e-06 4.07503e-10 6.33506e-35
2620 1 0.000635 -0.00977167 -0.003175 -0.017928 -1.3427e-16 4.1748e-17 2.16e-11 5.26426e-25 5.81792e-35
2706 1 0.000635 -0.00867182 -0.00254 -0.017928 -7.2301e-17 -5.97417e-18 2.16e-11 0 1.61609e-35
2791 1 0.000635 -0.00757197 -0.003175 -0.017928 1.44602e-16 4.77053e-17 2.16e-11 5.26426e-25 3.55539e-35
2877 1 0.000635 -0.00647211 -0.00254 -0.017928 -1.44605e-16 -1.19365e-17 2.16e-11 0 3.23218e-35
2962 1 0.000635 -0.00537226 -0.003175 -0.017928 1.44604e-16 4.7707e-17 2.16e-11 0 3.55539e-35
3049 1 0.000635 -0.00427241 -0.00254 -0.017928 -1.03284e-16 -1.19373e-17 2.16e-11 5.26426e-25 1.93931e-35
3135 1 0.000635 -0.00317256 -0.003175 -0.017928 3.09963e-17 4.17472e-17 2.16e-11 1.05285e-24 6.46435e-36
3222 1 0.000635 -0.0020727 -0.00254 -0.017928 0 -1.43996e-20 2.16e-11 0 0
3308 1 0.000635 -0.000972852 -0.003175 -0.017928 0 3.57823e-17 2.16e-11 1.05285e-24 3.23218e-36
3395 1 0.000635 0.000127 -0.00254 -0.017928 0 -1.35525e-20 2.16e-11 0 0
3481 1 0.000635 0.00122685 -0.003175 -0.017928 0 3.57823e-17 2.16e-11 1.05285e-24 3.23218e-36
3568 1 0.000635 0.0023267 -0.00254 -0.017928 -6.77626e-21 -1.35525e-20 2.16e-11 0 0
3654 1 0.000635 0.00342656 -0.003175 -0.017928 3.09777e-17 4.17463e-17 2.16e-11 1.05285e-24 6.46435e-36
3741 1 0.000635 0.00452641 -0.00254 -0.017928 4.13115e-17 -1.19382e-17 2.16e-11 5.26426e-25 1.93931e-35
3827 1 0.000635 0.00562626 -0.003175 -0.017928 -1.44595e-16 4.77053e-17 2.16e-11 5.26426e-25 3.55539e-35
3913 1 0.000635 0.00672611 -0.00254 -0.017928 7.23095e-17 -5.97502e-18 2.16e-11 0 1.61609e-35
3998 1 0.000635 0.00782597 -0.003175 -0.017928 0 3.57823e-17 2.16e-11 1.05285e-24 3.23218e-36
4084 1 0.000635 0.00892582 -0.00254 -0.017928 -8.47033e-21 -1.27055e-20 2.16e-11 0 0
4169 1 0.000635 0.0100257 -0.003175 -0.017928 1.3427e-16 4.1748e-17 2.16e-11 5.26426e-25 5.81792e-35
4255 1 0.000635 0.0111255 -0.00254 -0.017928 1.48717e-07 -2.93254e-08 -4.8831e-06 2.29074e-10 6.33506e-35
4339 1 0.000635 0.0122254 -0.003175 -0.017928 4.44305e-05 3.28615e-06 1.84049e-05 3.00262e-10 6.62687e-12
4424 1 0.000635 0.0132877 -0.00253941 -0.017642 2.22563e-09 -6.64512e-10 -8.02268e-09 3.33118e-10 1.42004e-11
4508 1 0.000635 0.0143177 -0.00317304 -0.0172531 -2.15366e-10 -1.19563e-09 5.72941e-10 2.42364e-09 1.22448e-10
2367 1 0.000635 -0.0130082 -0.00126929 -0.0175603 -7.45723e-09 -1.34843e-09 -1.57438e-08 4.93637e-10 2.4773e-11
2451 1 0.000635 -0.0119714 -0.001905 -0.017928 9.61033e-06 3.50206e-05 6.92795e-06 4.92817e-10 1.13656e-11
2536 1 0.000635 -0.0108715 -0.00127 -0.017928 -2.71039e-07 -1.77942e-08 -6.47619e-06 4.0787e-10 6.33506e-35
2621 1 0.000635 -0.00977167 -0.001905 -0.017928 -1.44592e-16 -1.19229e-17 2.16e-11 5.26426e-25 6.39971e-35
2707 1 0.000635 -0.00867182 -0.00127 -0.017928 -7.2301e-17 5.96909e-18 2.16e-11 5.26426e-25 1.61609e-35
2792 1 0.000635 -0.00757197 -0.001905 -0.017928 1.44605e-16 -1.19229e-17 2.16e-11 0 3.29682e-35
2878 1 0.000635 -0.00647211 -0.00127 -0.017928 -1.44605e-16 1.19331e-17 2.16e-11 0 3.23218e-35
2963 1 0.000635 -0.00537226 -0.001905 -0.017928 1.44602e-16 -1.19246e-17 2.16e-11 0 3.29682e-35
3050 1 0.000635 -0.00427241 -0.00127 -0.017928 -1.13613e-16 5.96993e-18 2.16e-11 0 2.13324e-35
3136 1 0.000635 -0.00317256 -0.001905 -0.017928 4.13081e-17 -1.19229e-17 2.16e-11 0 5.81792e-36
3223 1 0.000635 -0.0020727 -0.00127 -0.017928 0 7.6233e-21 2.16e-11 0 0
3309 1 0.000635 -0.000972852 -0.001905 -0.017928 0 -1.19229e-17 2.16e-11 0 6.46435e-37
3396 1 0.000635 0.000127 -0.00127 -0.017928 0 6.77626e-21 2.16e-11 0 0
3482 1 0.000635 0.00122685 -0.001905 -0.017928 0 -1.19229e-17 2.16e-11 0 6.46435e-37
3569 1 0.000635 0.0023267 -0.00127 -0.017928 -6.77626e-21 6.77626e-21 2.16e-11 0 0
3655 1 0.000635 0.00342656 -0.001905 -0.017928 2.06608e-17 -1.19229e-17 2.16e-11 0 1.93931e-36
3742 1 0.000635 0.00452641 -0.00127 -0.017928 4.13149e-17 1.19331e-17 2.16e-11 5.26426e-25 1.93931e-35
3828 1 0.000635 0.00562626 -0.001905 -0.017928 -1.44599e-16 -1.19229e-17 2.16e-11 0 3.29682e-35
3914 1 0.000635 0.00672611 -0.00127 -0.017928 7.23078e-17 5.96909e-18 2.16e-11 5.26426e-25 1.61609e-35
3999 1 0.000635 0.00782597 -0.001905 -0.017928 -6.77626e-21 -1.19229e-17 2.16e-11 5.26426e-25 6.46435e-37
4085 1 0.000635 0.00892582 -0.00127 -0.017928 -6.77626e-21 6.77626e-21 2.16e-11 0 0
4170 1 0.000635 0.0100257 -0.001905 -0.017928 1.44599e-16 -1.19229e-17 2.16e-11 0 6.39971e-35
4256 1 0.000635 0.0111255 -0.00127 -0.017928 1.61688e-07 -1.11288e-09 -5.01354e-06 2.41578e-10 6.33506e-35
4340 1 0.000635 0.0122254 -0.001905 -0.017928 5.87387e-06 6.05888e-06 9.45826e-06 2.94509e-10 4.75009e-13
4425 1 0.000635 0.013288 -0.00126979 -0.017644 5.2669e-09 -6.01632e-10 -1.71029e-08 3.24844e-10 3.22066e-12
4509 1 0.000635 0.0143049 -0.00190408 -0.0172234 -1.17611e-09 -1.59759e-09 -4.63868e-10 1.13713e-10 1.2351e-11
2368 1 0.000635 -0.0130074 7.46028e-09 -0.0175582 1.00057e-08 -1.24987e-09 2.55527e-08 4.83246e-10 1.52457e-11
2452 1 0.000635 -0.0119714 -0.000635 -0.017928 -8.11077e-07 1.0303e-05 1.10678e-05 4.75294e-10 9.76729e-13
2622 1 0.000635 -0.00977167 -0.000635 -0.017928 -1.44599e-16 -8.47033e-21 2.16e-11 0 6.33506e-35
2793 1 0.000635 -0.00757197 -0.000635 -0.017928 1.44604e-16 -1.19339e-17 2.16e-11 5.26426e-25 3.23218e-35
2964 1 0.000635 -0.00537226 -0.000635 -0.017928 1.44604e-16 -1.19365e-17 2.16e-11 0 3.23218e-35
3137 1 0.000635 -0.00317256 -0.000635 -0.017928 4.13183e-17 -8.47033e-21 2.16e-11 0 5.17148e-36
3310 1 0.000635 -0.000972852 -0.000635 -0.017928 0 -8.47033e-21 2.16e-11 0 0
3483 1 0.000635 0.00122685 -0.000635 -0.017928 0 -8.47033e-21 2.16e-11 0 0
3656 1 0.000635 0.00342656 -0.000635 -0.017928 3.09811e-17 -5.97078e-18 2.16e-11 5.26426e-25 3.23218e-36
3829 1 0.000635 0.00562626 -0.000635 -0.017928 -1.44597e-16 -1.19339e-17 2.16e-11 5.26426e-25 3.23218e-35
4000 1 0.000635 0.00782597 -0.000635 -0.017928 0 -8.47033e-21 2.16e-11 0 0
4171 1 0.000635 0.0100257 -0.000635 -0.017928 1.44599e-16 -8.47033e-21 2.16e-11 0 6.33506e-35
4341 1 0.000635 0.0122254 -0.000635 -0.017928 5.24186e-07 2.43089e-06 7.6071e-06 3.06371e-10 5.78769e-14
4426 1 0.000635 0.0132884 -4.60187e-09 -0.0176455 -3.57334e-09 -5.51481e-10 8.99265e-09 3.28333e-10 1.51162e-12
4510 1 0.000635 0.0143008 -0.000634723 -0.0172151 5.36784e-09 -1.53099e-09 -1.49318e-08 1.00794e-10 1.00167e-11
2453 1 0.000635 -0.0119714 0.000635 -0.017928 -3.06891e-06 -8.46248e-06 1.20339e-05 4.72388e-10 7.1699e-13
2537 1 0.000635 -0.0108715 0 -0.017928 -2.7492e-07 -3.80047e-09 -6.51077e-06 4.12367e-10 6.33506e-35
2623 1 0.000635 -0.00977167 0.000635 -0.017928 -1.44599e-16 -3.38813e-21 2.16e-11 0 6.33506e-35
2708 1 0.000635 -0.00867182 0 -0.017928 -8.26247e-17 5.92923e-21 2.16e-11 0 2.06859e-35
2794 1 0.000635 -0.00757197 0.000635 -0.017928 1.44602e-16 -3.38813e-21 2.16e-11 0 3.23218e-35
2879 1 0.000635 -0.00647211 0 -0.017928 -1.44605e-16 5.0822e-21 2.16e-11 0 3.23218e-35
2965 1 0.000635 -0.00537226 0.000635 -0.017928 1.44602e-16 -3.38813e-21 2.16e-11 0 3.23218e-35
3051 1 0.000635 -0.00427241 0 -0.017928 -1.03282e-16 5.92923e-21 2.16e-11 0 1.68073e-35
3138 1 0.000635 -0.00317256 0.000635 -0.017928 4.13149e-17 -3.38813e-21 2.16e-11 0 5.17148e-36
3224 1 0.000635 -0.0020727 0 -0.017928 0 6.77626e-21 2.16e-11 0 0
3311 1 0.000635 -0.000972852 0.000635 -0.017928 0 -3.38813e-21 2.16e-11 0 0
3397 1 0.000635 0.000127 0 -0.017928 0 6.77626e-21 2.16e-11 0 0
3484 1 0.000635 0.00122685 0.000635 -0.017928 0 -3.38813e-21 2.16e-11 0 0
3570 1 0.000635 0.0023267 0 -0.017928 -3.38813e-21 5.0822e-21 2.16e-11 5.26426e-25 0
3657 1 0.000635 0.00342656 0.000635 -0.017928 2.06574e-17 -3.38813e-21 2.16e-11 0 1.29287e-36
3743 1 0.000635 0.00452641 0 -0.017928 4.13132e-17 5.92923e-21 2.16e-11 0 1.29287e-35
3830 1 0.000635 0.00562626 0.000635 -0.017928 -1.44595e-16 -3.38813e-21 2.16e-11 0 3.23218e-35
3915 1 0.000635 0.00672611 0 -0.017928 8.26315e-17 5.92923e-21 2.16e-11 0 2.06859e-35
4001 1 0.000635 0.00782597 0.000635 -0.017928 0 -3.38813e-21 2.16e-11 0 0
4086 1 0.000635 0.00892582 0 -0.017928 -6.77626e-21 6.77626e-21 2.16e-11 0 0
4172 1 0.000635 0.0100257 0.000635 -0.017928 1.44599e-16 -3.38813e-21 2.16e-11 0 6.33506e-35
4257 1 0.000635 0.0111255 0 -0.017928 1.62426e-07 -3.67822e-11 -5.00978e-06 2.41213e-10 6.33506e-35
4342 1 0.000635 0.0122254 0.000635 -0.017928 5.94296e-07 -2.64183e-06 7.62772e-06 3.06445e-10 6.81456e-14
4511 1 0.000635 0.0143008 0.000634689 -0.017215 9.7495e-11 -1.19834e-09 -2.63507e-09 1.00737e-10 1.00666e-11
2369 1 0.000635 -0.0130072 0.00126934 -0.0175576 6.48094e-09 -1.44595e-09 1.70611e-08 4.83455e-10 2.37716e-11
2454 1 0.000635 -0.0119714 0.001905 -0.017928 3.43109e-06 -3.19194e-05 9.55848e-06 4.80551e-10 9.26355e-12
2538 1 0.000635 -0.0108715 0.00127 -0.017928 -2.75147e-07 1.04855e-08 -6.52223e-06 4.13844e-10 6.33506e-35
2624 1 0.000635 -0.00977167 0.001905 -0.017928 -1.44595e-16 1.19221e-17 2.16e-11 0 6.39971e-35
2709 1 0.000635 -0.00867182 0.00127 -0.017928 -8.26264e-17 0 2.16e-11 0 2.06859e-35
2795 1 0.000635 -0.00757197 0.001905 -0.017928 1.44604e-16 1.19221e-17 2.16e-11 0 3.29682e-35
2880 1 0.000635 -0.00647211 0.00127 -0.017928 -1.44605e-16 0 2.16e-11 0 3.23218e-35
2966 1 0.000635 -0.00537226 0.001905 -0.017928 1.44604e-16 1.19238e-17 2.16e-11 0 3.29682e-35
3052 1 0.000635 -0.00427241 0.00127 -0.017928 -1.0328e-16 0 2.16e-11 0 1.68073e-35
3139 1 0.000635 -0.00317256 0.001905 -0.017928 4.13115e-17 1.19229e-17 2.16e-11 0 5.81792e-36
3225 1 0.000635 -0.0020727 0.00127 -0.017928 0 0 2.16e-11 0 0
3312 1 0.000635 -0.000972852 0.001905 -0.017928 0 1.19212e-17 2.16e-11 0 6.46435e-37
3398 1 0.000635 0.000127 0.00127 -0.017928 0 0 2.16e-11 0 0
3485 1 0.000635 0.00122685 0.001905 -0.017928 0 1.19212e-17 2.16e-11 0 6.46435e-37
3571 1 0.000635 0.0023267 0.00127 -0.017928 -6.77626e-21 0 2.16e-11 0 0
3658 1 0.000635 0.00342656 0.001905 -0.017928 2.06591e-17 1.19221e-17 2.16e-11 0 1.93931e-36
3744 1 0.000635 0.00452641 0.00127 -0.017928 4.13115e-17 0 2.16e-11 0 1.29287e-35
3831 1 0.000635 0.00562626 0.001905 -0.017928 -1.44597e-16 1.19221e-17 2.16e-11 0 3.29682e-35
3916 1 0.000635 0.00672611 0.00127 -0.017928 8.26331e-17 0 2.16e-11 0 2.06859e-35
4002 1 0.000635 0.00782597 0.001905 -0.017928 -3.38813e-21 1.19221e-17 2.16e-11 0 6.46435e-37
4087 1 0.000635 0.00892582 0.00127 -0.017928 -6.77626e-21 0 2.16e-11 0 0
4173 1 0.000635 0.0100257 0.001905 -0.017928 1.44599e-16 1.19212e-17 2.16e-11 0 6.39971e-35
4258 1 0.000635 0.0111255 0.00127 -0.017928 1.6185e-07 9.54121e-10 -5.0162e-06 2.41841e-10 6.33506e-35
4343 1 0.000635 0.0122254 0.001905 -0.017928 5.94242e-06 -6.40354e-06 9.48843e-06 2.94686e-10 5.17227e-13
4427 1 0.000635 0.013288 0.00126978 -0.0176439 -2.55392e-09 -3.82984e-10 5.8007e-09 3.2493e-10 3.29274e-12
4512 1 0.000635 0.0143048 0.00190405 -0.0172232 -3.92775e-09 -4.62001e-10 5.27846e-09 1.13468e-10 1.2502e-11
2370 1 0.000635 -0.0130075 0.00253842 -0.0175584 7.21021e-10 -1.49752e-09 2.09078e-09 4.96993e-10 6.15926e-11
2455 1 0.000635 -0.0119714 0.003175 -0.017928 3.59762e-05 -7.49124e-05 -3.06989e-06 5.06604e-10 5.51612e-11
2539 1 0.000635 -0.0108715 0.00254 -0.017928 -2.76002e-07 1.91594e-08 -6.55487e-06 4.18089e-10 6.33506e-35
2625 1 0.000635 -0.00977167 0.003175 -0.017928 -1.3427e-16 -4.1748e-17 2.16e-11 5.26426e-25 5.81792e-35
2710 1 0.000635 -0.00867182 0.00254 -0.017928 -7.2301e-17 5.97417e-18 2.16e-11 0 1.61609e-35
2796 1 0.000635 -0.00757197 0.003175 -0.017928 1.44602e-16 -4.77053e-17 2.16e-11 5.26426e-25 3.55539e-35
2881 1 0.000635 -0.00647211 0.00254 -0.017928 -1.44605e-16 1.19365e-17 2.16e-11 0 3.23218e-35
2967 1 0.000635 -0.00537226 0.003175 -0.017928 1.44604e-16 -4.7707e-17 2.16e-11 0 3.55539e-35
3053 1 0.000635 -0.00427241 0.00254 -0.017928 -1.03284e-16 1.19373e-17 2.16e-11 5.26426e-25 1.93931e-35
3140 1 0.000635 -0.00317256 0.003175 -0.017928 3.09963e-17 -4.17472e-17 2.16e-11 1.05285e-24 6.46435e-36
3226 1 0.000635 -0.0020727 0.00254 -0.017928 0 1.43996e-20 2.16e-11 0 0
3313 1 0.000635 -0.000972852 0.003175 -0.017928 0 -3.57823e-17 2.16e-11 1.05285e-24 3.23218e-36