ITEM: TIMESTEP
0
ITEM: NUMBER OF ATOMS
6793
ITEM: BOX BOUNDS ff ff ff
-8.9999999999999997e-02 8.9999999999999997e-02
-8.9999999999999997e-02 8.9999999999999997e-02
-4.0000000000000001e-02 4.0000000000000001e-02
ITEM: ATOMS id type radius x y z fx fy fz c_bendingE c_stretchingE
2580 1 0.000635 -0.00977167 -0.053975 0 -7.22892e-17 1.72988e-16 0 1.05285e-24 2.20434e-34
2751 1 0.000635 -0.00757197 -0.053975 0 7.2296e-17 1.25297e-16 0 5.26426e-25 1.11833e-34
2922 1 0.000635 -0.00537226 -0.053975 0 3.10455e-17 1.49256e-16 0 5.26426e-25 1.22176e-34
3008 1 0.000635 -0.00427241 -0.05461 0 -5.16385e-17 -5.37574e-17 0 5.26426e-25 6.52899e-35
3095 1 0.000635 -0.00317256 -0.053975 0 5.16436e-17 2.08962e-16 0 1.57928e-24 1.62255e-34
3181 1 0.000635 -0.0020727 -0.05461 0 0 -5.97171e-17 0 1.05285e-24 6.59364e-35
3268 1 0.000635 -0.000972852 -0.053975 0 0 2.14918e-16 0 4.21141e-24 1.70659e-34
3354 1 0.000635 0.000127 -0.05461 0 0 -5.97146e-17 0 2.10571e-24 6.59364e-35
3441 1 0.000635 0.00122685 -0.053975 0 0 2.14918e-16 0 4.21141e-24 1.70659e-34
3527 1 0.000635 0.0023267 -0.05461 0 -3.38813e-21 -5.97137e-17 0 1.57928e-24 6.59364e-35
3614 1 0.000635 0.00342656 -0.053975 0 2.06591e-17 2.14918e-16 0 2.10571e-24 1.74537e-34
3700 1 0.000635 0.00452641 -0.05461 0 2.06557e-17 -3.58755e-17 0 5.26426e-25 3.62004e-35
3787 1 0.000635 0.00562626 -0.053975 0 -3.10455e-17 1.49257e-16 0 5.26426e-25 1.22176e-34
3958 1 0.000635 0.00782597 -0.053975 0 -1.69407e-21 1.31259e-16 0 1.57928e-24 1.07308e-34
4129 1 0.000635 0.0100257 -0.053975 0 7.22909e-17 1.72992e-16 0 1.57928e-24 2.20434e-34
2242 1 0.000635 -0.0141711 -0.052705 0 7.23569e-17 1.7309e-16 0 2.63213e-24 2.20434e-34
2326 1 0.000635 -0.0130712 -0.05334 0 -1.44585e-16 -5.97112e-17 0 1.05285e-24 1.29287e-34
2411 1 0.000635 -0.0119714 -0.052705 0 1.44622e-16 2.14977e-16 0 3.15856e-24 2.15909e-34
2495 1 0.000635 -0.0108715 -0.05334 0 2.37474e-16 -1.13463e-16 0 1.57928e-24 1.99748e-34
2581 1 0.000635 -0.00977167 -0.052705 0 -1.44563e-16 1.91107e-16 0 2.63213e-24 2.54695e-34
2666 1 0.000635 -0.00867182 -0.05334 0 -8.26298e-17 -1.67204e-16 0 1.57928e-24 1.81002e-34
2752 1 0.000635 -0.00757197 -0.052705 0 1.44607e-16 1.91162e-16 0 1.05285e-24 2.02981e-34
2837 1 0.000635 -0.00647211 -0.05334 0 -1.44634e-16 -1.67273e-16 0 0 2.00395e-34
2923 1 0.000635 -0.00537226 -0.052705 0 1.44609e-16 1.91162e-16 0 5.26426e-25 2.02981e-34
3009 1 0.000635 -0.00427241 -0.05334 0 -1.13638e-16 -1.85159e-16 0 1.05285e-24 1.84234e-34
3096 1 0.000635 -0.00317256 -0.052705 0 5.16487e-17 1.852e-16 0 3.15856e-24 1.64841e-34
3182 1 0.000635 -0.0020727 -0.05334 0 -1.69407e-21 -1.9116e-16 0 4.73784e-24 1.73245e-34
3269 1 0.000635 -0.000972852 -0.052705 0 0 1.9116e-16 0 6.31712e-24 1.73245e-34
3355 1 0.000635 0.000127 -0.05334 0 0 -1.91158e-16 0 6.31712e-24 1.73245e-34
3442 1 0.000635 0.00122685 -0.052705 0 0 1.9116e-16 0 6.31712e-24 1.73245e-34
3528 1 0.000635 0.0023267 -0.05334 0 -6.77626e-21 -1.91158e-16 0 5.26426e-24 1.73245e-34
3615 1 0.000635 0.00342656 -0.052705 0 2.06574e-17 1.9116e-16 0 3.15856e-24 1.77123e-34
3701 1 0.000635 0.00452641 -0.05334 0 4.13403e-17 -1.91121e-16 0 1.05285e-24 1.96516e-34
3788 1 0.000635 0.00562626 -0.052705 0 -1.44604e-16 1.91162e-16 0 1.05285e-24 2.02981e-34
3873 1 0.000635 0.00672611 -0.05334 0 8.26636e-17 -1.67264e-16 0 2.10571e-24 1.81002e-34
3959 1 0.000635 0.00782597 -0.052705 0 -3.38813e-21 1.9116e-16 0 5.26426e-24 1.73245e-34
4044 1 0.000635 0.00892582 -0.05334 0 -3.38813e-21 -1.6721e-16 0 3.68498e-24 1.70659e-34
4130 1 0.000635 0.0100257 -0.052705 0 1.44567e-16 1.91107e-16 0 3.68498e-24 2.54695e-34
4215 1 0.000635 0.0111255 -0.05334 0 -2.37474e-16 -1.13463e-16 0 1.57928e-24 1.99748e-34
4300 1 0.000635 0.0122254 -0.052705 0 -1.44622e-16 2.14977e-16 0 3.15856e-24 2.15909e-34
4384 1 0.000635 0.0133252 -0.05334 0 1.44585e-16 -5.97112e-17 0 1.05285e-24 1.29287e-34
4469 1 0.000635 0.0144251 -0.052705 0 -7.23502e-17 1.73077e-16 0 2.10571e-24 2.20434e-34
1912 1 0.000635 -0.0185705 -0.051435 0 3.40844e-16 -1.01385e-16 0 1.57928e-24 3.34207e-34
1994 1 0.000635 -0.0174706 -0.05207 0 -1.34265e-16 -3.63723e-16 0 5.26426e-25 6.36739e-34
2077 1 0.000635 -0.0163708 -0.051435 0 3.55754e-20 2.38171e-17 0 4.21141e-24 1.29287e-34
2159 1 0.000635 -0.0152709 -0.05207 0 9.28585e-17 -4.95005e-16 0 2.63213e-24 6.97503e-34
2243 1 0.000635 -0.0141711 -0.051435 0 1.44639e-16 -4.57398e-20 0 4.21141e-24 6.85221e-35
2327 1 0.000635 -0.0130712 -0.05207 0 -2.89224e-16 -5.72611e-16 0 3.68498e-24 8.79152e-34
2412 1 0.000635 -0.0119714 -0.051435 0 1.44599e-16 0 0 4.21141e-24 3.21925e-34
2496 1 0.000635 -0.0108715 -0.05207 0 1.4459e-16 -5.7265e-16 0 3.15856e-24 8.33901e-34
2582 1 0.000635 -0.00977167 -0.051435 0 -1.44602e-16 0 0 3.15856e-24 6.85221e-35
2667 1 0.000635 -0.00867182 -0.05207 0 -8.26315e-17 -5.72651e-16 0 2.10571e-24 7.62793e-34
2753 1 0.000635 -0.00757197 -0.051435 0 1.44605e-16 -1.2326e-32 0 1.05285e-24 1.82295e-34
2838 1 0.000635 -0.00647211 -0.05207 0 -1.44612e-16 -5.72653e-16 0 0 7.82186e-34
2924 1 0.000635 -0.00537226 -0.051435 0 1.44612e-16 -1.2326e-32 0 0 1.82295e-34
3010 1 0.000635 -0.00427241 -0.05207 0 -1.13616e-16 -5.6669e-16 0 5.26426e-25 7.6344e-34
3097 1 0.000635 -0.00317256 -0.051435 0 4.13217e-17 0 0 3.15856e-24 1.73245e-34
3183 1 0.000635 -0.0020727 -0.05207 0 -1.69407e-21 -5.7265e-16 0 4.21141e-24 7.5245e-34
3270 1 0.000635 -0.000972852 -0.051435 0 0 0 0 5.26426e-24 1.31873e-34
3356 1 0.000635 0.000127 -0.05207 0 0 -5.7265e-16 0 5.26426e-24 7.5245e-34
3443 1 0.000635 0.00122685 -0.051435 0 0 0 0 5.26426e-24 1.31873e-34
3529 1 0.000635 0.0023267 -0.05207 0 -6.77626e-21 -5.7265e-16 0 4.21141e-24 7.5245e-34
3616 1 0.000635 0.00342656 -0.051435 0 2.06541e-17 0 0 2.10571e-24 1.15065e-34
3702 1 0.000635 0.00452641 -0.05207 0 4.132e-17 -5.72652e-16 0 5.26426e-25 7.75722e-34
3789 1 0.000635 0.00562626 -0.051435 0 -1.44602e-16 -6.16298e-33 0 1.05285e-24 1.82295e-34
3874 1 0.000635 0.00672611 -0.05207 0 8.26382e-17 -5.7265e-16 0 2.63213e-24 7.62793e-34
3960 1 0.000635 0.00782597 -0.051435 0 -3.38813e-21 0 0 4.21141e-24 1.31873e-34
4045 1 0.000635 0.00892582 -0.05207 0 -6.77626e-21 -5.7265e-16 0 4.73784e-24 7.5245e-34
4131 1 0.000635 0.0100257 -0.051435 0 1.44605e-16 0 0 4.21141e-24 6.85221e-35
4216 1 0.000635 0.0111255 -0.05207 0 -1.4459e-16 -5.7265e-16 0 3.15856e-24 8.33901e-34
4301 1 0.000635 0.0122254 -0.051435 0 -1.44599e-16 -6.16298e-33 0 4.21141e-24 3.21925e-34
4385 1 0.000635 0.0133252 -0.05207 0 2.89224e-16 -5.72611e-16 0 3.68498e-24 8.79152e-34
4470 1 0.000635 0.0144251 -0.051435 0 -1.44633e-16 -5.92923e-20 0 3.68498e-24 6.85221e-35
4553 1 0.000635 0.0155249 -0.05207 0 -2.37461e-16 -5.78438e-16 0 2.10571e-24 9.50906e-34
4636 1 0.000635 0.0166248 -0.051435 0 2.89169e-16 2.38171e-17 0 3.15856e-24 6.36092e-34
4718 1 0.000635 0.0177246 -0.05207 0 1.34258e-16 -3.63736e-16 0 5.26426e-25 6.36739e-34
4801 1 0.000635 0.0188245 -0.051435 0 -3.40844e-16 -1.01385e-16 0 1.57928e-24 3.34207e-34
1751 1 0.000635 -0.0207702 -0.050165 0 3.71731e-16 -1.19461e-16 0 2.63213e-24 3.99497e-34
1831 1 0.000635 -0.0196703 -0.0508 0 -5.06043e-16 2.56495e-16 0 2.10571e-24 6.45789e-34
1913 1 0.000635 -0.0185705 -0.050165 0 5.68051e-16 -1.97048e-16 0 3.68498e-24 6.71646e-34
1995 1 0.000635 -0.0174706 -0.0508 0 -2.78874e-16 5.78588e-16 0 4.21141e-24 1.03365e-33
2078 1 0.000635 -0.0163708 -0.050165 0 1.69407e-20 -1.9116e-16 0 5.79069e-24 1.73245e-34
2160 1 0.000635 -0.0152709 -0.0508 0 -6.77626e-21 5.72654e-16 0 4.73784e-24 7.5245e-34
2244 1 0.000635 -0.0141711 -0.050165 0 1.44607e-16 -1.91159e-16 0 5.26426e-24 2.54695e-34
2328 1 0.000635 -0.0130712 -0.0508 0 -2.89201e-16 5.7265e-16 0 4.21141e-24 8.79152e-34
2413 1 0.000635 -0.0119714 -0.050165 0 1.44602e-16 -1.91161e-16 0 4.21141e-24 2.18495e-34
2497 1 0.000635 -0.0108715 -0.0508 0 1.4459e-16 5.7265e-16 0 3.15856e-24 8.33901e-34
2583 1 0.000635 -0.00977167 -0.050165 0 -1.44595e-16 -1.91158e-16 0 3.15856e-24 2.54695e-34
2668 1 0.000635 -0.00867182 -0.0508 0 -8.26315e-17 5.72651e-16 0 2.10571e-24 7.62793e-34
2754 1 0.000635 -0.00757197 -0.050165 0 1.44607e-16 -1.91162e-16 0 1.05285e-24 2.02981e-34
2839 1 0.000635 -0.00647211 -0.0508 0 -1.44612e-16 5.72653e-16 0 0 7.82186e-34
2925 1 0.000635 -0.00537226 -0.050165 0 1.44609e-16 -1.91162e-16 0 5.26426e-25 2.02981e-34
3011 1 0.000635 -0.00427241 -0.0508 0 -1.13616e-16 5.6669e-16 0 5.26426e-25 7.6344e-34
3098 1 0.000635 -0.00317256 -0.050165 0 5.16487e-17 -1.852e-16 0 3.15856e-24 1.64841e-34
3184 1 0.000635 -0.0020727 -0.0508 0 -1.69407e-21 5.7265e-16 0 4.21141e-24 7.5245e-34
3271 1 0.000635 -0.000972852 -0.050165 0 0 -1.9116e-16 0 6.31712e-24 1.73245e-34
3357 1 0.000635 0.000127 -0.0508 0 0 5.7265e-16 0 5.26426e-24 7.5245e-34
3444 1 0.000635 0.00122685 -0.050165 0 0 -1.9116e-16 0 6.31712e-24 1.73245e-34
3530 1 0.000635 0.0023267 -0.0508 0 -6.77626e-21 5.7265e-16 0 4.21141e-24 7.5245e-34
3617 1 0.000635 0.00342656 -0.050165 0 2.06574e-17 -1.9116e-16 0 3.15856e-24 1.77123e-34
3703 1 0.000635 0.00452641 -0.0508 0 4.132e-17 5.72652e-16 0 5.26426e-25 7.75722e-34
3790 1 0.000635 0.00562626 -0.050165 0 -1.44604e-16 -1.91162e-16 0 1.05285e-24 2.02981e-34
3875 1 0.000635 0.00672611 -0.0508 0 8.26382e-17 5.7265e-16 0 2.63213e-24 7.62793e-34
3961 1 0.000635 0.00782597 -0.050165 0 -3.38813e-21 -1.9116e-16 0 5.26426e-24 1.73245e-34
4046 1 0.000635 0.00892582 -0.0508 0 -6.77626e-21 5.7265e-16 0 4.73784e-24 7.5245e-34
4132 1 0.000635 0.0100257 -0.050165 0 1.44599e-16 -1.91158e-16 0 4.21141e-24 2.54695e-34
4217 1 0.000635 0.0111255 -0.0508 0 -1.4459e-16 5.7265e-16 0 3.15856e-24 8.33901e-34
4302 1 0.000635 0.0122254 -0.050165 0 -1.44602e-16 -1.91161e-16 0 4.21141e-24 2.18495e-34
4386 1 0.000635 0.0133252 -0.0508 0 2.89201e-16 5.7265e-16 0 4.21141e-24 8.79152e-34
4471 1 0.000635 0.0144251 -0.050165 0 -1.44594e-16 -1.9116e-16 0 4.21141e-24 2.54695e-34
4554 1 0.000635 0.0155249 -0.0508 0 -2.89197e-16 5.72655e-16 0 3.15856e-24 9.69653e-34
4637 1 0.000635 0.0166248 -0.050165 0 2.89187e-16 -1.91162e-16 0 3.68498e-24 3.90447e-34
4719 1 0.000635 0.0177246 -0.0508 0 2.7886e-16 5.78588e-16 0 3.68498e-24 1.03365e-33
4802 1 0.000635 0.0188245 -0.050165 0 -5.68051e-16 -1.97048e-16 0 3.68498e-24 6.71646e-34
4883 1 0.000635 0.0199243 -0.0508 0 5.06043e-16 2.56495e-16 0 2.10571e-24 6.45789e-34
4964 1 0.000635 0.0210242 -0.050165 0 -3.71731e-16 -1.19461e-16 0 2.63213e-24 3.99497e-34
1672 1 0.000635 -0.02187 -0.04953 0 7.23857e-17 8.97159e-17 0 2.10571e-24 1.02783e-34
1832 1 0.000635 -0.0196703 -0.04953 0 -5.68061e-16 1.97061e-16 0 3.15856e-24 6.71646e-34
1996 1 0.000635 -0.0174706 -0.04953 0 -2.78887e-16 1.9712e-16 0 4.73784e-24 4.54444e-34
2161 1 0.000635 -0.0152709 -0.04953 0 -6.77626e-21 1.91158e-16 0 5.26426e-24 1.73245e-34
2329 1 0.000635 -0.0130712 -0.04953 0 -2.89199e-16 1.91157e-16 0 4.21141e-24 2.99946e-34
2498 1 0.000635 -0.0108715 -0.04953 0 1.44589e-16 1.91157e-16 0 3.15856e-24 2.54695e-34
2669 1 0.000635 -0.00867182 -0.04953 0 -8.26315e-17 1.91159e-16 0 2.10571e-24 1.83588e-34
2840 1 0.000635 -0.00647211 -0.04953 0 -1.44612e-16 1.91162e-16 0 0 2.02981e-34
3012 1 0.000635 -0.00427241 -0.04953 0 -1.13616e-16 1.85198e-16 0 1.05285e-24 1.84234e-34
3185 1 0.000635 -0.0020727 -0.04953 0 -1.69407e-21 1.9116e-16 0 4.73784e-24 1.73245e-34
3358 1 0.000635 0.000127 -0.04953 0 0 1.91158e-16 0 6.31712e-24 1.73245e-34
3531 1 0.000635 0.0023267 -0.04953 0 -6.77626e-21 1.91158e-16 0 5.26426e-24 1.73245e-34
3704 1 0.000635 0.00452641 -0.04953 0 4.13183e-17 1.9116e-16 0 1.05285e-24 1.96516e-34
3876 1 0.000635 0.00672611 -0.04953 0 8.26382e-17 1.91159e-16 0 3.15856e-24 1.83588e-34
4047 1 0.000635 0.00892582 -0.04953 0 -6.77626e-21 1.91158e-16 0 5.26426e-24 1.73245e-34
4218 1 0.000635 0.0111255 -0.04953 0 -1.44589e-16 1.91157e-16 0 3.15856e-24 2.54695e-34
4387 1 0.000635 0.0133252 -0.04953 0 2.89199e-16 1.91157e-16 0 4.21141e-24 2.99946e-34
4555 1 0.000635 0.0155249 -0.04953 0 -2.89197e-16 1.91161e-16 0 3.15856e-24 3.90447e-34
4720 1 0.000635 0.0177246 -0.04953 0 2.78874e-16 1.9712e-16 0 3.68498e-24 4.54444e-34
4884 1 0.000635 0.0199243 -0.04953 0 5.68061e-16 1.97061e-16 0 3.15856e-24 6.71646e-34
5044 1 0.000635 0.022124 -0.04953 0 -7.23857e-17 8.97159e-17 0 2.10571e-24 1.02783e-34
1517 1 0.000635 -0.0240697 -0.04826 0 2.06656e-16 1.79112e-16 0 2.10571e-24 4.20183e-34
1594 1 0.000635 -0.0229699 -0.048895 0 -3.30597e-16 -3.60686e-17 0 1.57928e-24 3.27096e-34
1673 1 0.000635 -0.02187 -0.04826 0 2.89216e-16 1.91141e-16 0 2.63213e-24 3.90447e-34
1752 1 0.000635 -0.0207702 -0.048895 0 2.78855e-16 -1.97089e-16 0 3.15856e-24 4.54444e-34
1833 1 0.000635 -0.0196703 -0.04826 0 -5.68095e-16 1.9712e-16 0 3.68498e-24 6.71646e-34
1914 1 0.000635 -0.0185705 -0.048895 0 5.68095e-16 -1.9712e-16 0 3.68498e-24 6.71646e-34
1997 1 0.000635 -0.0174706 -0.04826 0 -2.78887e-16 1.97121e-16 0 4.73784e-24 4.54444e-34
2079 1 0.000635 -0.0163708 -0.048895 0 1.69407e-20 -1.9116e-16 0 5.79069e-24 1.73245e-34
2162 1 0.000635 -0.0152709 -0.04826 0 -6.77626e-21 1.9116e-16 0 5.26426e-24 1.73245e-34
2245 1 0.000635 -0.0141711 -0.048895 0 1.44607e-16 -1.91159e-16 0 5.26426e-24 2.54695e-34
2330 1 0.000635 -0.0130712 -0.04826 0 -2.89199e-16 1.91159e-16 0 4.21141e-24 2.99946e-34
2414 1 0.000635 -0.0119714 -0.048895 0 1.44602e-16 -1.91161e-16 0 4.21141e-24 2.18495e-34
2499 1 0.000635 -0.0108715 -0.04826 0 1.44589e-16 1.91159e-16 0 3.15856e-24 2.54695e-34
2584 1 0.000635 -0.00977167 -0.048895 0 -1.44595e-16 -1.91158e-16 0 3.15856e-24 2.54695e-34
2670 1 0.000635 -0.00867182 -0.04826 0 -8.26315e-17 1.91161e-16 0 2.10571e-24 1.83588e-34
2755 1 0.000635 -0.00757197 -0.048895 0 1.44607e-16 -1.91162e-16 0 1.05285e-24 2.02981e-34
2841 1 0.000635 -0.00647211 -0.04826 0 -1.44612e-16 1.91163e-16 0 0 2.02981e-34
2926 1 0.000635 -0.00537226 -0.048895 0 1.44609e-16 -1.91162e-16 0 5.26426e-25 2.02981e-34
3013 1 0.000635 -0.00427241 -0.04826 0 -1.13616e-16 1.85199e-16 0 1.05285e-24 1.84234e-34
3099 1 0.000635 -0.00317256 -0.048895 0 5.16487e-17 -1.852e-16 0 3.15856e-24 1.64841e-34
3186 1 0.000635 -0.0020727 -0.04826 0 -1.69407e-21 1.91162e-16 0 4.73784e-24 1.73245e-34
3272 1 0.000635 -0.000972852 -0.048895 0 0 -1.9116e-16 0 6.31712e-24 1.73245e-34
3359 1 0.000635 0.000127 -0.04826 0 0 1.9116e-16 0 6.31712e-24 1.73245e-34
3445 1 0.000635 0.00122685 -0.048895 0 0 -1.9116e-16 0 6.31712e-24 1.73245e-34
3532 1 0.000635 0.0023267 -0.04826 0 -6.77626e-21 1.9116e-16 0 5.26426e-24 1.73245e-34
3618 1 0.000635 0.00342656 -0.048895 0 2.06574e-17 -1.9116e-16 0 3.15856e-24 1.77123e-34
3705 1 0.000635 0.00452641 -0.04826 0 4.13183e-17 1.91162e-16 0 1.05285e-24 1.96516e-34
3791 1 0.000635 0.00562626 -0.048895 0 -1.44604e-16 -1.91162e-16 0 1.05285e-24 2.02981e-34
3877 1 0.000635 0.00672611 -0.04826 0 8.26382e-17 1.91161e-16 0 3.15856e-24 1.83588e-34
3962 1 0.000635 0.00782597 -0.048895 0 -3.38813e-21 -1.9116e-16 0 5.26426e-24 1.73245e-34
4048 1 0.000635 0.00892582 -0.04826 0 -6.77626e-21 1.9116e-16 0 5.26426e-24 1.73245e-34
4133 1 0.000635 0.0100257 -0.048895 0 1.44599e-16 -1.91158e-16 0 4.21141e-24 2.54695e-34
4219 1 0.000635 0.0111255 -0.04826 0 -1.44589e-16 1.91159e-16 0 3.15856e-24 2.54695e-34
4303 1 0.000635 0.0122254 -0.048895 0 -1.44602e-16 -1.91161e-16 0 4.21141e-24 2.18495e-34
4388 1 0.000635 0.0133252 -0.04826 0 2.89199e-16 1.91159e-16 0 4.21141e-24 2.99946e-34
4472 1 0.000635 0.0144251 -0.048895 0 -1.44594e-16 -1.9116e-16 0 4.21141e-24 2.54695e-34
4556 1 0.000635 0.0155249 -0.04826 0 -2.89197e-16 1.91162e-16 0 3.15856e-24 3.90447e-34
4638 1 0.000635 0.0166248 -0.048895 0 2.89187e-16 -1.91162e-16 0 3.68498e-24 3.90447e-34
4721 1 0.000635 0.0177246 -0.04826 0 2.78874e-16 1.97122e-16 0 3.68498e-24 4.54444e-34
4803 1 0.000635 0.0188245 -0.048895 0 -5.68095e-16 -1.9712e-16 0 3.68498e-24 6.71646e-34
4885 1 0.000635 0.0199243 -0.04826 0 5.68095e-16 1.9712e-16 0 3.68498e-24 6.71646e-34
4965 1 0.000635 0.0210242 -0.048895 0 -2.78855e-16 -1.97089e-16 0 3.15856e-24 4.54444e-34
5045 1 0.000635 0.022124 -0.04826 0 -2.89216e-16 1.91141e-16 0 2.63213e-24 3.90447e-34
5123 1 0.000635 0.0232239 -0.048895 0 3.30597e-16 -3.60686e-17 0 1.57928e-24 3.27096e-34
5201 1 0.000635 0.0243237 -0.04826 0 -2.06656e-16 1.79112e-16 0 2.10571e-24 4.20183e-34
1290 1 0.000635 -0.0273693 -0.047625 0 6.20011e-17 5.95503e-17 0 0 2.58574e-35
1366 1 0.000635 -0.0262695 -0.04699 0 -5.68044e-16 2.20912e-16 0 3.15856e-24 6.6906e-34
1441 1 0.000635 -0.0251696 -0.047625 0 2.37457e-16 -1.96933e-16 0 3.15856e-24 3.717e-34
1518 1 0.000635 -0.0240697 -0.04699 0 2.78908e-16 1.97063e-16 0 3.15856e-24 4.54444e-34
1595 1 0.000635 -0.0229699 -0.047625 0 -5.68097e-16 -1.97089e-16 0 2.63213e-24 6.71646e-34
1674 1 0.000635 -0.02187 -0.04699 0 2.89204e-16 1.91161e-16 0 3.68498e-24 3.90447e-34
1753 1 0.000635 -0.0207702 -0.047625 0 2.78874e-16 -1.97122e-16 0 3.68498e-24 4.54444e-34
1834 1 0.000635 -0.0196703 -0.04699 0 -5.68095e-16 1.9712e-16 0 3.68498e-24 6.71646e-34
1915 1 0.000635 -0.0185705 -0.047625 0 5.68095e-16 -1.9712e-16 0 3.68498e-24 6.71646e-34
1998 1 0.000635 -0.0174706 -0.04699 0 -2.78887e-16 1.97121e-16 0 4.73784e-24 4.54444e-34
2080 1 0.000635 -0.0163708 -0.047625 0 1.69407e-20 -1.9116e-16 0 5.79069e-24 1.73245e-34
2163 1 0.000635 -0.0152709 -0.04699 0 -6.77626e-21 1.9116e-16 0 5.26426e-24 1.73245e-34
2246 1 0.000635 -0.0141711 -0.047625 0 1.44607e-16 -1.91159e-16 0 5.26426e-24 2.54695e-34
2331 1 0.000635 -0.0130712 -0.04699 0 -2.89199e-16 1.91159e-16 0 4.21141e-24 2.99946e-34
2415 1 0.000635 -0.0119714 -0.047625 0 1.44602e-16 -1.91161e-16 0 4.21141e-24 2.18495e-34
2500 1 0.000635 -0.0108715 -0.04699 0 1.44589e-16 1.91159e-16 0 3.15856e-24 2.54695e-34
2585 1 0.000635 -0.00977167 -0.047625 0 -1.44595e-16 -1.91158e-16 0 3.15856e-24 2.54695e-34
2671 1 0.000635 -0.00867182 -0.04699 0 -8.26315e-17 1.91161e-16 0 2.10571e-24 1.83588e-34
2756 1 0.000635 -0.00757197 -0.047625 0 1.44607e-16 -1.91162e-16 0 1.05285e-24 2.02981e-34
2842 1 0.000635 -0.00647211 -0.04699 0 -1.44612e-16 1.91163e-16 0 0 2.02981e-34
2927 1 0.000635 -0.00537226 -0.047625 0 1.44609e-16 -1.91162e-16 0 5.26426e-25 2.02981e-34
3014 1 0.000635 -0.00427241 -0.04699 0 -1.13616e-16 1.85199e-16 0 1.05285e-24 1.84234e-34
3100 1 0.000635 -0.00317256 -0.047625 0 5.16487e-17 -1.852e-16 0 3.15856e-24 1.64841e-34
3187 1 0.000635 -0.0020727 -0.04699 0 -1.69407e-21 1.91162e-16 0 4.73784e-24 1.73245e-34
3273 1 0.000635 -0.000972852 -0.047625 0 0 -1.9116e-16 0 6.31712e-24 1.73245e-34
3360 1 0.000635 0.000127 -0.04699 0 0 1.9116e-16 0 6.31712e-24 1.73245e-34
3446 1 0.000635 0.00122685 -0.047625 0 0 -1.9116e-16 0 6.31712e-24 1.73245e-34
3533 1 0.000635 0.0023267 -0.04699 0 -6.77626e-21 1.9116e-16 0 5.26426e-24 1.73245e-34
3619 1 0.000635 0.00342656 -0.047625 0 2.06574e-17 -1.9116e-16 0 3.15856e-24 1.77123e-34
3706 1 0.000635 0.00452641 -0.04699 0 4.13183e-17 1.91162e-16 0 1.05285e-24 1.96516e-34
3792 1 0.000635 0.00562626 -0.047625 0 -1.44604e-16 -1.91162e-16 0 1.05285e-24 2.02981e-34
3878 1 0.000635 0.00672611 -0.04699 0 8.26382e-17 1.91161e-16 0 3.15856e-24 1.83588e-34
3963 1 0.000635 0.00782597 -0.047625 0 -3.38813e-21 -1.9116e-16 0 5.26426e-24 1.73245e-34
4049 1 0.000635 0.00892582 -0.04699 0 -6.77626e-21 1.9116e-16 0 5.26426e-24 1.73245e-34
4134 1 0.000635 0.0100257 -0.047625 0 1.44599e-16 -1.91158e-16 0 4.21141e-24 2.54695e-34
4220 1 0.000635 0.0111255 -0.04699 0 -1.44589e-16 1.91159e-16 0 3.15856e-24 2.54695e-34
4304 1 0.000635 0.0122254 -0.047625 0 -1.44602e-16 -1.91161e-16 0 4.21141e-24 2.18495e-34
4389 1 0.000635 0.0133252 -0.04699 0 2.89199e-16 1.91159e-16 0 4.21141e-24 2.99946e-34
4473 1 0.000635 0.0144251 -0.047625 0 -1.44594e-16 -1.9116e-16 0 4.21141e-24 2.54695e-34
4557 1 0.000635 0.0155249 -0.04699 0 -2.89197e-16 1.91162e-16 0 3.15856e-24 3.90447e-34
4639 1 0.000635 0.0166248 -0.047625 0 2.89187e-16 -1.91162e-16 0 3.68498e-24 3.90447e-34
4722 1 0.000635 0.0177246 -0.04699 0 2.78874e-16 1.97122e-16 0 3.68498e-24 4.54444e-34
4804 1 0.000635 0.0188245 -0.047625 0 -5.68095e-16 -1.9712e-16 0 3.68498e-24 6.71646e-34
4886 1 0.000635 0.0199243 -0.04699 0 5.68095e-16 1.9712e-16 0 3.68498e-24 6.71646e-34
4966 1 0.000635 0.0210242 -0.047625 0 -2.78874e-16 -1.97122e-16 0 3.68498e-24 4.54444e-34
5046 1 0.000635 0.022124 -0.04699 0 -2.89204e-16 1.91161e-16 0 3.68498e-24 3.90447e-34
5124 1 0.000635 0.0232239 -0.047625 0 5.68097e-16 -1.97089e-16 0 2.63213e-24 6.71646e-34
5202 1 0.000635 0.0243237 -0.04699 0 -2.78908e-16 1.97063e-16 0 3.15856e-24 4.54444e-34
5278 1 0.000635 0.0254236 -0.047625 0 -2.37457e-16 -1.96933e-16 0 3.15856e-24 3.717e-34
5354 1 0.000635 0.0265235 -0.04699 0 5.68044e-16 2.20912e-16 0 3.15856e-24 6.6906e-34
5429 1 0.000635 0.0276233 -0.047625 0 -6.20011e-17 5.95503e-17 0 0 2.58574e-35
1217 1 0.000635 -0.0284692 -0.04572 0 7.23857e-17 8.97159e-17 0 2.10571e-24 1.02783e-34
1291 1 0.000635 -0.0273693 -0.046355 0 3.71731e-16 -1.43311e-16 0 2.63213e-24 4.02083e-34
1367 1 0.000635 -0.0262695 -0.04572 0 -5.68044e-16 1.97063e-16 0 3.15856e-24 6.71646e-34
1442 1 0.000635 -0.0251696 -0.046355 0 2.89204e-16 -1.91161e-16 0 3.68498e-24 3.90447e-34
1519 1 0.000635 -0.0240697 -0.04572 0 2.78874e-16 1.97122e-16 0 3.68498e-24 4.54444e-34
1596 1 0.000635 -0.0229699 -0.046355 0 -5.68078e-16 -1.97121e-16 0 3.68498e-24 6.71646e-34
1675 1 0.000635 -0.02187 -0.04572 0 2.89204e-16 1.91161e-16 0 3.68498e-24 3.90447e-34
1754 1 0.000635 -0.0207702 -0.046355 0 2.78874e-16 -1.97122e-16 0 3.68498e-24 4.54444e-34
1835 1 0.000635 -0.0196703 -0.04572 0 -5.68095e-16 1.9712e-16 0 3.68498e-24 6.71646e-34
1916 1 0.000635 -0.0185705 -0.046355 0 5.68095e-16 -1.9712e-16 0 3.68498e-24 6.71646e-34
1999 1 0.000635 -0.0174706 -0.04572 0 -2.78887e-16 1.97121e-16 0 4.73784e-24 4.54444e-34
2081 1 0.000635 -0.0163708 -0.046355 0 1.69407e-20 -1.9116e-16 0 5.79069e-24 1.73245e-34
2164 1 0.000635 -0.0152709 -0.04572 0 -6.77626e-21 1.9116e-16 0 5.26426e-24 1.73245e-34
2247 1 0.000635 -0.0141711 -0.046355 0 1.44607e-16 -1.91159e-16 0 5.26426e-24 2.54695e-34
2332 1 0.000635 -0.0130712 -0.04572 0 -2.89199e-16 1.91159e-16 0 4.21141e-24 2.99946e-34
2416 1 0.000635 -0.0119714 -0.046355 0 1.44602e-16 -1.91161e-16 0 4.21141e-24 2.18495e-34
2501 1 0.000635 -0.0108715 -0.04572 0 1.44589e-16 1.91159e-16 0 3.15856e-24 2.54695e-34
2586 1 0.000635 -0.00977167 -0.046355 0 -1.44595e-16 -1.91158e-16 0 3.15856e-24 2.54695e-34
2672 1 0.000635 -0.00867182 -0.04572 0 -8.26315e-17 1.91161e-16 0 2.10571e-24 1.83588e-34
2757 1 0.000635 -0.00757197 -0.046355 0 1.44607e-16 -1.91162e-16 0 1.05285e-24 2.02981e-34
2843 1 0.000635 -0.00647211 -0.04572 0 -1.44612e-16 1.91163e-16 0 0 2.02981e-34
2928 1 0.000635 -0.00537226 -0.046355 0 1.44609e-16 -1.91162e-16 0 5.26426e-25 2.02981e-34
3015 1 0.000635 -0.00427241 -0.04572 0 -1.13616e-16 1.85199e-16 0 1.05285e-24 1.84234e-34
3101 1 0.000635 -0.00317256 -0.046355 0 5.16487e-17 -1.852e-16 0 3.15856e-24 1.64841e-34
3188 1 0.000635 -0.0020727 -0.04572 0 -1.69407e-21 1.91162e-16 0 4.73784e-24 1.73245e-34
3274 1 0.000635 -0.000972852 -0.046355 0 0 -1.9116e-16 0 6.31712e-24 1.73245e-34
3361 1 0.000635 0.000127 -0.04572 0 0 1.9116e-16 0 6.31712e-24 1.73245e-34
3447 1 0.000635 0.00122685 -0.046355 0 0 -1.9116e-16 0 6.31712e-24 1.73245e-34
3534 1 0.000635 0.0023267 -0.04572 0 -6.77626e-21 1.9116e-16 0 5.26426e-24 1.73245e-34
3620 1 0.000635 0.00342656 -0.046355 0 2.06574e-17 -1.9116e-16 0 3.15856e-24 1.77123e-34
3707 1 0.000635 0.00452641 -0.04572 0 4.13183e-17 1.91162e-16 0 1.05285e-24 1.96516e-34
3793 1 0.000635 0.00562626 -0.046355 0 -1.44604e-16 -1.91162e-16 0 1.05285e-24 2.02981e-34
3879 1 0.000635 0.00672611 -0.04572 0 8.26382e-17 1.91161e-16 0 3.15856e-24 1.83588e-34
3964 1 0.000635 0.00782597 -0.046355 0 -3.38813e-21 -1.9116e-16 0 5.26426e-24 1.73245e-34
4050 1 0.000635 0.00892582 -0.04572 0 -6.77626e-21 1.9116e-16 0 5.26426e-24 1.73245e-34
4135 1 0.000635 0.0100257 -0.046355 0 1.44599e-16 -1.91158e-16 0 4.21141e-24 2.54695e-34
4221 1 0.000635 0.0111255 -0.04572 0 -1.44589e-16 1.91159e-16 0 3.15856e-24 2.54695e-34
4305 1 0.000635 0.0122254 -0.046355 0 -1.44602e-16 -1.91161e-16 0 4.21141e-24 2.18495e-34
4390 1 0.000635 0.0133252 -0.04572 0 2.89199e-16 1.91159e-16 0 4.21141e-24 2.99946e-34
4474 1 0.000635 0.0144251 -0.046355 0 -1.44594e-16 -1.9116e-16 0 4.21141e-24 2.54695e-34
4558 1 0.000635 0.0155249 -0.04572 0 -2.89197e-16 1.91162e-16 0 3.15856e-24 3.90447e-34
4640 1 0.000635 0.0166248 -0.046355 0 2.89187e-16 -1.91162e-16 0 3.68498e-24 3.90447e-34
4723 1 0.000635 0.0177246 -0.04572 0 2.78874e-16 1.97122e-16 0 3.68498e-24 4.54444e-34
4805 1 0.000635 0.0188245 -0.046355 0 -5.68095e-16 -1.9712e-16 0 3.68498e-24 6.71646e-34
4887 1 0.000635 0.0199243 -0.04572 0 5.68095e-16 1.9712e-16 0 3.68498e-24 6.71646e-34
4967 1 0.000635 0.0210242 -0.046355 0 -2.78874e-16 -1.97122e-16 0 3.68498e-24 4.54444e-34
5047 1 0.000635 0.022124 -0.04572 0 -2.89204e-16 1.91161e-16 0 3.68498e-24 3.90447e-34
5125 1 0.000635 0.0232239 -0.046355 0 5.68078e-16 -1.97121e-16 0 3.68498e-24 6.71646e-34
5203 1 0.000635 0.0243237 -0.04572 0 -2.78874e-16 1.97122e-16 0 3.68498e-24 4.54444e-34
5279 1 0.000635 0.0254236 -0.046355 0 -2.89204e-16 -1.91161e-16 0 3.68498e-24 3.90447e-34
5355 1 0.000635 0.0265235 -0.04572 0 5.68044e-16 1.97063e-16 0 3.15856e-24 6.71646e-34
5430 1 0.000635 0.0276233 -0.046355 0 -3.71731e-16 -1.43311e-16 0 2.63213e-24 4.02083e-34
5505 1 0.000635 0.0287232 -0.04572 0 -7.23857e-17 8.97159e-17 0 2.10571e-24 1.02783e-34
1074 1 0.000635 -0.0306689 -0.04445 0 3.51256e-16 9.56782e-17 0 1.57928e-24 3.83982e-34
1145 1 0.000635 -0.029569 -0.045085 0 -3.30602e-16 -3.6083e-17 0 1.05285e-24 3.27096e-34
1218 1 0.000635 -0.0284692 -0.04445 0 2.89216e-16 1.91141e-16 0 2.63213e-24 3.90447e-34
1292 1 0.000635 -0.0273693 -0.045085 0 2.78855e-16 -1.97089e-16 0 3.15856e-24 4.54444e-34
1368 1 0.000635 -0.0262695 -0.04445 0 -5.68078e-16 1.97121e-16 0 3.68498e-24 6.71646e-34
1443 1 0.000635 -0.0251696 -0.045085 0 2.89204e-16 -1.91161e-16 0 3.68498e-24 3.90447e-34
1520 1 0.000635 -0.0240697 -0.04445 0 2.78874e-16 1.97122e-16 0 3.68498e-24 4.54444e-34
1597 1 0.000635 -0.0229699 -0.045085 0 -5.68078e-16 -1.97121e-16 0 3.68498e-24 6.71646e-34
1676 1 0.000635 -0.02187 -0.04445 0 2.89204e-16 1.91161e-16 0 3.68498e-24 3.90447e-34
1755 1 0.000635 -0.0207702 -0.045085 0 2.78874e-16 -1.97122e-16 0 3.68498e-24 4.54444e-34
1836 1 0.000635 -0.0196703 -0.04445 0 -5.68095e-16 1.9712e-16 0 3.68498e-24 6.71646e-34
1917 1 0.000635 -0.0185705 -0.045085 0 5.68095e-16 -1.9712e-16 0 3.68498e-24 6.71646e-34
2000 1 0.000635 -0.0174706 -0.04445 0 -2.78887e-16 1.97121e-16 0 4.73784e-24 4.54444e-34
2082 1 0.000635 -0.0163708 -0.045085 0 1.69407e-20 -1.9116e-16 0 5.79069e-24 1.73245e-34
2165 1 0.000635 -0.0152709 -0.04445 0 -6.77626e-21 1.9116e-16 0 5.26426e-24 1.73245e-34
2248 1 0.000635 -0.0141711 -0.045085 0 1.44607e-16 -1.91159e-16 0 5.26426e-24 2.54695e-34
2333 1 0.000635 -0.0130712 -0.04445 0 -2.89199e-16 1.91159e-16 0 4.21141e-24 2.99946e-34
2417 1 0.000635 -0.0119714 -0.045085 0 1.44602e-16 -1.91161e-16 0 4.21141e-24 2.18495e-34
2502 1 0.000635 -0.0108715 -0.04445 0 1.44589e-16 1.91159e-16 0 3.15856e-24 2.54695e-34
2587 1 0.000635 -0.00977167 -0.045085 0 -1.44595e-16 -1.91158e-16 0 3.15856e-24 2.54695e-34
2673 1 0.000635 -0.00867182 -0.04445 0 -8.26315e-17 1.91161e-16 0 2.10571e-24 1.83588e-34
2758 1 0.000635 -0.00757197 -0.045085 0 1.44607e-16 -1.91162e-16 0 1.05285e-24 2.02981e-34
2844 1 0.000635 -0.00647211 -0.04445 0 -1.44612e-16 1.91163e-16 0 0 2.02981e-34
2929 1 0.000635 -0.00537226 -0.045085 0 1.44609e-16 -1.91162e-16 0 5.26426e-25 2.02981e-34
3016 1 0.000635 -0.00427241 -0.04445 0 -1.13616e-16 1.85199e-16 0 1.05285e-24 1.84234e-34
3102 1 0.000635 -0.00317256 -0.045085 0 5.16487e-17 -1.852e-16 0 3.15856e-24 1.64841e-34
3189 1 0.000635 -0.0020727 -0.04445 0 -1.69407e-21 1.91162e-16 0 4.73784e-24 1.73245e-34
3275 1 0.000635 -0.000972852 -0.045085 0 0 -1.9116e-16 0 6.31712e-24 1.73245e-34
3362 1 0.000635 0.000127 -0.04445 0 0 1.9116e-16 0 6.31712e-24 1.73245e-34
3448 1 0.000635 0.00122685 -0.045085 0 0 -1.9116e-16 0 6.31712e-24 1.73245e-34
3535 1 0.000635 0.0023267 -0.04445 0 -6.77626e-21 1.9116e-16 0 5.26426e-24 1.73245e-34
3621 1 0.000635 0.00342656 -0.045085 0 2.06574e-17 -1.9116e-16 0 3.15856e-24 1.77123e-34
3708 1 0.000635 0.00452641 -0.04445 0 4.13183e-17 1.91162e-16 0 1.05285e-24 1.96516e-34
3794 1 0.000635 0.00562626 -0.045085 0 -1.44604e-16 -1.91162e-16 0 1.05285e-24 2.02981e-34
3880 1 0.000635 0.00672611 -0.04445 0 8.26382e-17 1.91161e-16 0 3.15856e-24 1.83588e-34
3965 1 0.000635 0.00782597 -0.045085 0 -3.38813e-21 -1.9116e-16 0 5.26426e-24 1.73245e-34
4051 1 0.000635 0.00892582 -0.04445 0 -6.77626e-21 1.9116e-16 0 5.26426e-24 1.73245e-34
4136 1 0.000635 0.0100257 -0.045085 0 1.44599e-16 -1.91158e-16 0 4.21141e-24 2.54695e-34
4222 1 0.000635 0.0111255 -0.04445 0 -1.44589e-16 1.91159e-16 0 3.15856e-24 2.54695e-34
4306 1 0.000635 0.0122254 -0.045085 0 -1.44602e-16 -1.91161e-16 0 4.21141e-24 2.18495e-34
4391 1 0.000635 0.0133252 -0.04445 0 2.89199e-16 1.91159e-16 0 4.21141e-24 2.99946e-34
4475 1 0.000635 0.0144251 -0.045085 0 -1.44594e-16 -1.9116e-16 0 4.21141e-24 2.54695e-34
4559 1 0.000635 0.0155249 -0.04445 0 -2.89197e-16 1.91162e-16 0 3.15856e-24 3.90447e-34
4641 1 0.000635 0.0166248 -0.045085 0 2.89187e-16 -1.91162e-16 0 3.68498e-24 3.90447e-34
4724 1 0.000635 0.0177246 -0.04445 0 2.78874e-16 1.97122e-16 0 3.68498e-24 4.54444e-34
4806 1 0.000635 0.0188245 -0.045085 0 -5.68095e-16 -1.9712e-16 0 3.68498e-24 6.71646e-34
4888 1 0.000635 0.0199243 -0.04445 0 5.68095e-16 1.9712e-16 0 3.68498e-24 6.71646e-34
4968 1 0.000635 0.0210242 -0.045085 0 -2.78874e-16 -1.97122e-16 0 3.68498e-24 4.54444e-34
5048 1 0.000635 0.022124 -0.04445 0 -2.89204e-16 1.91161e-16 0 3.68498e-24 3.90447e-34
5126 1 0.000635 0.0232239 -0.045085 0 5.68078e-16 -1.97121e-16 0 3.68498e-24 6.71646e-34
5204 1 0.000635 0.0243237 -0.04445 0 -2.78874e-16 1.97122e-16 0 3.68498e-24 4.54444e-34
5280 1 0.000635 0.0254236 -0.045085 0 -2.89204e-16 -1.91161e-16 0 3.68498e-24 3.90447e-34
5356 1 0.000635 0.0265235 -0.04445 0 5.68078e-16 1.97121e-16 0 3.68498e-24 6.71646e-34