ITEM: TIMESTEP
290000
ITEM: NUMBER OF ATOMS
6793
ITEM: BOX BOUNDS ff ff ff
-8.9999999999999997e-02 8.9999999999999997e-02
-8.9999999999999997e-02 8.9999999999999997e-02
-4.0000000000000001e-02 4.0000000000000001e-02
ITEM: ATOMS id type radius x y z fx fy fz c_bendingE c_stretchingE
3468 1 0.000635 0.00121786 -0.0196518 -0.00243497 9.21129e-10 -7.43022e-11 -4.08224e-10 4.31159e-11 9.24101e-12
3382 1 0.000635 0.000121483 -0.0190122 -0.0024635 8.99487e-10 1.62402e-10 1.33318e-09 6.60318e-11 7.99849e-12
3469 1 0.000635 0.0012209 -0.0183933 -0.00260997 4.76809e-10 -8.87911e-10 -6.46409e-09 5.02569e-11 1.55726e-11
3555 1 0.000635 0.00231894 -0.0190246 -0.0025193 7.92959e-10 -9.81182e-10 -7.45368e-09 1.77871e-11 1.22627e-11
3642 1 0.000635 0.00341922 -0.0183919 -0.00255854 6.77889e-10 -4.15307e-10 -2.68158e-09 3.95741e-12 1.20554e-11
3728 1 0.000635 0.00451696 -0.019021 -0.00244799 4.98958e-10 5.15227e-10 5.42988e-09 9.44299e-13 8.70271e-12
3815 1 0.000635 0.00561719 -0.0183881 -0.00248437 4.53975e-10 8.40776e-10 7.75554e-09 7.34088e-13 8.91471e-12
3297 1 0.000635 -0.00096596 -0.0171068 -0.00260582 1.28886e-10 -4.54575e-10 -3.13849e-09 1.02584e-10 3.01758e-11
3383 1 0.000635 0.000123494 -0.0177564 -0.00265463 1.80712e-11 -9.4075e-10 -5.67931e-09 8.07358e-11 1.1204e-11
3470 1 0.000635 0.0012237 -0.0171325 -0.00276887 3.36718e-10 1.28289e-10 1.97322e-09 5.19948e-11 2.32134e-11
3556 1 0.000635 0.00232159 -0.0177628 -0.00266929 5.00109e-10 -2.27744e-10 -1.11265e-09 1.61511e-11 1.80352e-11
3643 1 0.000635 0.00342129 -0.0171285 -0.00269426 5.33372e-10 -2.10747e-10 -1.20312e-09 2.4605e-12 1.56527e-11
3729 1 0.000635 0.00451914 -0.0177581 -0.00258733 4.27743e-10 5.03622e-10 5.20748e-09 5.9314e-13 1.10538e-11
3816 1 0.000635 0.0056193 -0.0171252 -0.00262287 4.38385e-10 6.67725e-10 6.07463e-09 1.13597e-12 1.08795e-11
3901 1 0.000635 0.00671753 -0.0177558 -0.00252435 7.05309e-10 5.22324e-11 1.58811e-10 5.21155e-12 9.85133e-12
3987 1 0.000635 0.00781752 -0.0171223 -0.00255349 7.91387e-10 -5.30688e-11 -1.45397e-09 2.14263e-11 9.82257e-12
3211 1 0.000635 -0.0020388 -0.0164422 -0.00246989 1.38217e-09 8.24576e-10 2.67784e-09 1.17351e-10 2.87863e-11
3384 1 0.000635 0.000125503 -0.0164985 -0.00283282 3.10783e-10 -2.75061e-10 -1.62113e-09 8.60079e-11 1.77069e-11
3557 1 0.000635 0.00232363 -0.016499 -0.00280366 5.39334e-10 -4.97564e-10 -4.11393e-09 1.19453e-11 2.34978e-11
3730 1 0.000635 0.00452104 -0.0164944 -0.00271905 3.63258e-10 4.51287e-10 4.63853e-09 5.11586e-13 1.3171e-11
3902 1 0.000635 0.00671963 -0.016493 -0.00266403 6.40192e-10 2.64609e-12 -4.86727e-10 8.41363e-12 1.21668e-11
4073 1 0.000635 0.00891495 -0.0164841 -0.00253718 9.63721e-10 -1.70841e-10 -3.31887e-09 4.28299e-11 5.59269e-12
3212 1 0.000635 -0.00206099 -0.0152114 -0.00277911 -2.54402e-10 -9.25992e-10 -4.73339e-09 1.1892e-10 5.80499e-11
3298 1 0.000635 -0.000970094 -0.0158574 -0.00282936 -1.44129e-10 -7.72211e-10 -4.80424e-09 1.11812e-10 3.59919e-11
3385 1 0.000635 0.000126962 -0.0152362 -0.00297914 1.9229e-10 1.32643e-11 8.65968e-10 1.00264e-10 1.69371e-11
3471 1 0.000635 0.00122571 -0.0158688 -0.00290473 3.87711e-10 -5.18511e-10 -4.19125e-09 4.68196e-11 2.53719e-11
3558 1 0.000635 0.00232508 -0.0152338 -0.00292358 2.24941e-10 3.61174e-11 1.34949e-09 6.30704e-12 2.89744e-11
3731 1 0.000635 0.00452272 -0.01523 -0.00284412 3.09482e-10 3.3332e-10 3.3766e-09 7.75289e-13 1.44425e-11
3644 1 0.000635 0.003423 -0.015864 -0.00282055 1.75221e-10 5.45512e-10 6.36719e-09 1.31736e-12 1.90664e-11
3817 1 0.000635 0.00562119 -0.0158615 -0.00275459 4.84924e-10 1.14629e-10 8.83455e-10 1.68141e-12 1.20541e-11
3903 1 0.000635 0.00672151 -0.0152293 -0.00279518 6.24684e-10 -4.38806e-10 -4.84072e-09 1.17338e-11 1.29814e-11
3988 1 0.000635 0.00781956 -0.0158594 -0.00269127 8.01483e-10 -2.5774e-10 -3.492e-09 3.3995e-11 1.2246e-11
4074 1 0.000635 0.00891605 -0.0152202 -0.00266132 8.77349e-10 -1.61339e-10 -3.12954e-09 5.36643e-11 5.74854e-12
4159 1 0.000635 0.010002 -0.0158369 -0.00242923 6.93165e-10 1.08538e-10 -9.31373e-10 4.3077e-11 9.93948e-12
2868 1 0.000635 -0.00643192 -0.013899 -0.0024423 3.00492e-10 9.14782e-10 1.73234e-09 2.1233e-11 4.69632e-12
2953 1 0.000635 -0.00533045 -0.0145302 -0.00243006 -2.85741e-10 -3.99473e-10 -2.28111e-09 2.329e-11 7.35252e-12
3040 1 0.000635 -0.00425539 -0.0139374 -0.00275573 -1.92328e-10 -4.42122e-10 -1.71317e-09 7.69775e-11 2.75563e-11
3126 1 0.000635 -0.00315603 -0.0145712 -0.00275449 -5.96347e-10 -1.34772e-09 -5.92336e-09 9.70826e-11 4.8723e-11
3213 1 0.000635 -0.00207129 -0.0139644 -0.00301645 -1.83325e-10 -4.70886e-10 -3.00501e-09 1.11707e-10 9.16108e-12
3299 1 0.000635 -0.000972316 -0.0146009 -0.00301274 -3.6638e-12 -3.6784e-10 -2.63153e-09 1.0039e-10 2.42682e-12
3386 1 0.000635 0.000127335 -0.0139693 -0.00307589 6.39419e-11 -2.82437e-10 -3.39234e-09 5.97691e-11 1.38207e-11
3472 1 0.000635 0.00122669 -0.0146026 -0.00301378 1.45916e-10 -3.49455e-11 5.72111e-10 2.7883e-11 1.93578e-11
3559 1 0.000635 0.00232617 -0.0139675 -0.00303342 1.15073e-10 9.19454e-11 1.88124e-09 1.7518e-11 4.32365e-11
3732 1 0.000635 0.0045242 -0.0139648 -0.00296121 3.75273e-10 -2.24414e-10 -2.66465e-09 2.29513e-12 1.41133e-11
3645 1 0.000635 0.00342445 -0.0145989 -0.00293961 2.21422e-10 1.19857e-10 1.93597e-09 2.86498e-12 2.23718e-11
3818 1 0.000635 0.00562288 -0.014597 -0.00287792 4.49732e-10 1.53311e-11 -4.42895e-10 2.2801e-12 1.12089e-11
3904 1 0.000635 0.00672317 -0.0139643 -0.00291427 5.67648e-10 -4.13468e-10 -5.56158e-09 1.36024e-11 1.07787e-11
3989 1 0.000635 0.00782137 -0.0145954 -0.00281914 4.68314e-10 -1.45436e-10 -1.94995e-09 4.56093e-11 1.24448e-11
4075 1 0.000635 0.00891732 -0.0139558 -0.002779 -5.7182e-10 6.31324e-10 6.32971e-09 6.09196e-11 5.05775e-12
4160 1 0.000635 0.00999741 -0.0145706 -0.00251743 3.64569e-10 2.04924e-10 7.25626e-10 5.52749e-11 2.24115e-11
2698 1 0.000635 -0.00863167 -0.0126304 -0.00244649 3.82625e-10 1.02003e-09 2.18542e-09 2.14988e-11 3.17356e-12
2783 1 0.000635 -0.00753231 -0.0132656 -0.00244744 5.61964e-10 1.34322e-09 3.09867e-09 2.10062e-11 3.16395e-12
2869 1 0.000635 -0.00645515 -0.0126697 -0.00276021 -6.09759e-10 -8.12534e-10 -5.51577e-09 6.17613e-11 6.04203e-12
2954 1 0.000635 -0.00535539 -0.013304 -0.00275913 -4.21181e-10 -5.64729e-10 -3.07619e-09 6.75907e-11 1.24733e-11
3041 1 0.000635 -0.00426965 -0.0126935 -0.00300881 4.33334e-10 6.69474e-10 4.81601e-09 1.14241e-10 1.46e-11
3127 1 0.000635 -0.00317033 -0.0133287 -0.00301323 1.0885e-10 9.10065e-11 9.93015e-10 1.18948e-10 2.44062e-11
3214 1 0.000635 -0.0020727 -0.0127 -0.003132 -1.00105e-05 -4.63607e-06 3.26203e-06 9.29395e-11 5.75053e-12
3300 1 0.000635 -0.000972613 -0.0133349 -0.00311259 -9.15805e-12 -8.97055e-11 3.79199e-10 7.31402e-11 3.00572e-12
3387 1 0.000635 0.000127 -0.0127 -0.003132 2.62861e-05 -3.78484e-05 2.5177e-06 1.93052e-11 6.71761e-12
3473 1 0.000635 0.00122695 -0.0133347 -0.0030968 1.46351e-11 5.33134e-11 1.9724e-09 1.53019e-11 1.04433e-11
3560 1 0.000635 0.0023267 -0.0127 -0.003132 2.40938e-05 -0.000101349 1.2596e-05 2.66023e-11 3.37073e-11
3646 1 0.000635 0.00342559 -0.0133328 -0.00304969 -2.1291e-11 3.87565e-10 5.34513e-09 2.13039e-11 2.61188e-11
3733 1 0.000635 0.00452555 -0.0126985 -0.00306349 1.5598e-10 7.33076e-12 2.92413e-10 1.58826e-11 7.39845e-12
3819 1 0.000635 0.00562439 -0.0133314 -0.00298855 4.0524e-10 -2.42123e-10 -3.35123e-09 3.72412e-12 7.30042e-12
3905 1 0.000635 0.00672459 -0.0126979 -0.00301639 4.04314e-10 -6.30297e-11 -1.73434e-09 1.48779e-11 7.28973e-12
3990 1 0.000635 0.00782302 -0.0133301 -0.00293402 5.24051e-10 -4.36134e-11 -2.39274e-09 4.81599e-11 9.89951e-12
4076 1 0.000635 0.00891967 -0.0126912 -0.00289513 1.51763e-09 -7.25055e-10 -8.31872e-09 6.76035e-11 2.8727e-12
4161 1 0.000635 0.0099951 -0.0133053 -0.00261429 -4.06956e-10 5.26488e-10 3.27255e-09 6.69697e-11 3.49572e-11
4247 1 0.000635 0.0110614 -0.0126502 -0.00240017 -2.01414e-10 4.79457e-10 1.92782e-09 3.32583e-11 1.48163e-11
2613 1 0.000635 -0.0097299 -0.0119933 -0.00243941 5.74172e-10 1.38671e-09 3.69665e-09 2.27668e-11 4.67182e-12
2699 1 0.000635 -0.0086542 -0.0114002 -0.00276169 2.33133e-10 6.86966e-10 1.27352e-09 6.49157e-11 6.64765e-12
2784 1 0.000635 -0.00755474 -0.0120351 -0.00276086 -7.52573e-11 1.00324e-10 -1.65799e-09 6.07214e-11 4.52343e-12
2870 1 0.000635 -0.0064684 -0.0114233 -0.00300281 -5.30393e-10 -8.71732e-10 -6.89672e-09 1.05119e-10 3.80832e-12
2955 1 0.000635 -0.00536896 -0.0120583 -0.00300457 -2.64147e-10 -4.69981e-10 -3.50312e-09 1.08063e-10 7.0313e-12
3042 1 0.000635 -0.00427241 -0.01143 -0.003132 -9.26132e-06 2.29481e-05 5.3681e-07 9.258e-11 4.16305e-12
3128 1 0.000635 -0.00317256 -0.012065 -0.003132 -1.68751e-05 3.00285e-05 -1.21948e-07 9.76139e-11 8.91875e-12
3215 1 0.000635 -0.0020727 -0.01143 -0.003132 6.33662e-09 -3.25237e-08 -2.10548e-06 4.20534e-11 5.17148e-36
3301 1 0.000635 -0.000972852 -0.012065 -0.003132 2.15078e-08 -4.30448e-07 -1.71887e-06 3.26984e-11 6.79925e-16
3388 1 0.000635 0.000127 -0.01143 -0.003132 -2.95481e-09 1.69407e-21 -4.94587e-07 4.6255e-12 5.17148e-36
3474 1 0.000635 0.00122685 -0.012065 -0.003132 -2.86707e-10 -1.0032e-05 -4.20013e-07 1.56996e-11 4.56621e-13
3561 1 0.000635 0.0023267 -0.01143 -0.003132 8.69053e-10 -6.63616e-09 -1.4725e-06 2.11767e-11 5.17148e-36
3647 1 0.000635 0.00342656 -0.012065 -0.003132 1.67929e-05 -3.78699e-05 4.92672e-06 1.98836e-11 5.35784e-12
3734 1 0.000635 0.00452641 -0.01143 -0.003132 7.46328e-06 -2.34593e-05 3.19289e-06 1.29455e-11 2.01527e-12
3820 1 0.000635 0.00562559 -0.0120642 -0.0030781 1.92616e-10 4.26552e-11 5.86227e-10 1.18186e-11 4.09163e-12
3906 1 0.000635 0.00672561 -0.0114298 -0.00309321 2.28095e-10 9.69177e-11 1.78093e-09 1.759e-11 4.71298e-12
3991 1 0.000635 0.00782453 -0.0120634 -0.00303266 4.95488e-10 8.5404e-11 1.03193e-09 5.47808e-11 7.45459e-12
4077 1 0.000635 0.00892293 -0.0114262 -0.00300686 7.44621e-10 -1.16524e-10 -1.88649e-09 7.72441e-11 1.81885e-12
4162 1 0.000635 0.0100033 -0.0120443 -0.00275542 1.83447e-09 -8.45171e-10 -7.55386e-09 7.50184e-11 3.17039e-11
4248 1 0.000635 0.0110779 -0.0113931 -0.00257478 2.11845e-09 -1.03006e-09 -7.94318e-09 4.83821e-11 2.26617e-11
2528 1 0.000635 -0.0108268 -0.0113543 -0.00242577 -5.44882e-10 -2.88842e-10 -2.47531e-09 2.74611e-11 7.1481e-12
2614 1 0.000635 -0.0097533 -0.0107649 -0.00276155 -6.34781e-10 -7.79477e-10 -3.88593e-09 7.3207e-11 1.43772e-11
2785 1 0.000635 -0.00756801 -0.0107886 -0.00300389 -3.24616e-10 -3.69673e-10 -4.00053e-09 1.05989e-10 4.17444e-12
2956 1 0.000635 -0.00537226 -0.010795 -0.003132 -1.21739e-06 1.6082e-05 9.18186e-07 8.8894e-11 1.29576e-12
3129 1 0.000635 -0.00317256 -0.010795 -0.003132 -1.27608e-09 -3.18357e-08 -2.1718e-06 4.47612e-11 6.46435e-36
3302 1 0.000635 -0.000972852 -0.010795 -0.003132 -2.10825e-09 -1.69407e-21 -1.71171e-07 5.53949e-13 5.17148e-36
3475 1 0.000635 0.00122685 -0.010795 -0.003132 -8.87988e-10 0 -3.10356e-07 1.82086e-12 5.17148e-36
3648 1 0.000635 0.00342656 -0.010795 -0.003132 6.87935e-09 -2.82145e-09 -1.20091e-06 1.42338e-11 1.0343e-35
3821 1 0.000635 0.00562626 -0.010795 -0.003132 1.77333e-06 -1.92129e-05 1.96259e-06 9.05516e-12 1.52436e-12
3992 1 0.000635 0.00782556 -0.0107949 -0.00310424 2.8058e-10 1.26982e-10 2.22881e-09 5.19805e-11 5.2662e-12
4163 1 0.000635 0.0100149 -0.0107848 -0.00291177 1.98126e-09 -9.97656e-10 -9.18359e-09 8.43582e-11 1.55541e-11
2110 1 0.000635 -0.0163298 -0.00950861 -0.00247739 -7.95417e-10 2.24639e-10 -3.27454e-09 9.63319e-11 2.36508e-11
2276 1 0.000635 -0.0141321 -0.00946755 -0.00249872 -5.75484e-10 1.09024e-09 -6.70199e-10 1.81111e-10 3.22171e-11
2360 1 0.000635 -0.0130239 -0.0100822 -0.00242292 -5.50151e-10 5.03435e-10 -1.50952e-09 9.11391e-11 1.3887e-11
2445 1 0.000635 -0.0119505 -0.00949427 -0.00276042 -9.84424e-10 -8.58072e-10 -5.37558e-09 1.17331e-10 5.9682e-11
2529 1 0.000635 -0.0108519 -0.0101291 -0.00275938 -3.06171e-10 2.10822e-10 7.27383e-12 9.16566e-11 3.22032e-11
2615 1 0.000635 -0.00976758 -0.00951986 -0.00301369 4.7848e-10 1.28712e-09 8.16758e-09 1.18133e-10 1.7326e-11
2700 1 0.000635 -0.00866775 -0.0101541 -0.0030077 -4.16566e-10 -3.41405e-10 -3.35009e-09 1.10682e-10 8.36286e-12
2786 1 0.000635 -0.00757197 -0.009525 -0.003132 1.70465e-05 6.86132e-06 7.04608e-07 8.94537e-11 1.80813e-12
2871 1 0.000635 -0.00647211 -0.01016 -0.003132 7.35631e-06 1.072e-05 9.85521e-07 8.79905e-11 5.2545e-13
2957 1 0.000635 -0.00537226 -0.009525 -0.003132 -1.33077e-08 -2.7443e-08 -2.25412e-06 4.81684e-11 3.74932e-35
3043 1 0.000635 -0.00427241 -0.01016 -0.003132 -6.86445e-09 -3.02333e-08 -2.22629e-06 4.70096e-11 2.71503e-35
3130 1 0.000635 -0.00317256 -0.009525 -0.003132 2.0671e-17 0 2.16e-11 1.05285e-24 6.46435e-36
3216 1 0.000635 -0.0020727 -0.01016 -0.003132 -6.77626e-21 0 2.16e-11 0 5.17148e-36
3303 1 0.000635 -0.000972852 -0.009525 -0.003132 0 0 2.16e-11 0 5.17148e-36
3389 1 0.000635 0.000127 -0.01016 -0.003132 0 0 2.16e-11 0 5.17148e-36
3476 1 0.000635 0.00122685 -0.009525 -0.003132 0 0 2.16e-11 0 5.17148e-36
3562 1 0.000635 0.0023267 -0.01016 -0.003132 0 0 2.16e-11 0 5.17148e-36
3649 1 0.000635 0.00342656 -0.009525 -0.003132 4.13115e-17 0 2.16e-11 0 1.0343e-35
3735 1 0.000635 0.00452641 -0.01016 -0.003132 7.78888e-09 3.56778e-10 -9.46098e-07 9.1132e-12 3.10289e-35
3822 1 0.000635 0.00562626 -0.009525 -0.003132 6.57848e-09 1.169e-09 -7.20058e-07 5.40341e-12 3.74932e-35
3907 1 0.000635 0.00672611 -0.01016 -0.003132 -3.56726e-06 -1.75118e-05 7.30749e-07 1.26244e-11 1.81394e-12
3993 1 0.000635 0.00782597 -0.009525 -0.003132 -1.05364e-05 -7.52869e-06 -6.0109e-07 3.78625e-11 1.51304e-12
4078 1 0.000635 0.00892531 -0.0101594 -0.00309525 7.68254e-10 -4.62112e-10 -6.71912e-09 8.41413e-11 3.80674e-12
4164 1 0.000635 0.0100232 -0.00952232 -0.00304544 -1.94843e-09 1.71885e-09 2.04331e-08 9.87182e-11 1.03465e-11
4249 1 0.000635 0.011099 -0.0101392 -0.00277098 1.12895e-09 -2.85132e-10 -7.5592e-10 7.26656e-11 1.98361e-11
4334 1 0.000635 0.0121807 -0.00949217 -0.00262064 1.26988e-09 -2.02223e-10 -2.58655e-09 3.29106e-11 1.86403e-11
2028 1 0.000635 -0.0174366 -0.0088873 -0.0024948 -5.09395e-10 1.19368e-09 1.62762e-09 8.74714e-11 1.26178e-11
2111 1 0.000635 -0.0163498 -0.00825312 -0.00266955 -5.51136e-11 1.43173e-09 5.93304e-09 1.09498e-10 1.52388e-11
2193 1 0.000635 -0.0152442 -0.00887674 -0.00265881 -5.94689e-10 8.44952e-10 -1.09033e-09 1.41952e-10 3.16159e-11
2277 1 0.000635 -0.014159 -0.00824871 -0.00285522 -9.58685e-10 -2.59699e-10 -6.60299e-09 1.44313e-10 3.91479e-11
2361 1 0.000635 -0.0130538 -0.00886932 -0.00279866 -6.66638e-10 9.35451e-11 -2.48322e-09 1.5826e-10 6.69845e-11
2446 1 0.000635 -0.011968 -0.00825222 -0.00302552 -1.53555e-10 2.85855e-10 3.3117e-10 1.19637e-10 9.14126e-12
2530 1 0.000635 -0.0108676 -0.00888597 -0.00302125 -1.99409e-10 1.66905e-10 -2.51162e-10 1.21438e-10 1.98787e-11
2616 1 0.000635 -0.00977167 -0.008255 -0.003132 2.57433e-05 -4.72231e-06 7.97753e-07 1.00249e-10 6.59072e-12
2701 1 0.000635 -0.00867182 -0.00889 -0.003132 2.78036e-05 3.98159e-06 8.3419e-08 9.39515e-11 5.35266e-12
2787 1 0.000635 -0.00757197 -0.008255 -0.003132 -2.42432e-08 -1.83943e-08 -2.17368e-06 4.48532e-11 4.0079e-35
2872 1 0.000635 -0.00647211 -0.00889 -0.003132 -1.9208e-08 -2.34173e-08 -2.23606e-06 4.74147e-11 3.74932e-35
2958 1 0.000635 -0.00537226 -0.008255 -0.003132 1.44607e-16 -7.15799e-17 2.16e-11 5.26426e-25 4.0079e-35
3044 1 0.000635 -0.00427241 -0.00889 -0.003132 -1.03289e-16 -4.76841e-17 2.16e-11 1.05285e-24 2.71503e-35
3131 1 0.000635 -0.00317256 -0.008255 -0.003132 3.09912e-17 -7.75431e-17 2.16e-11 5.26426e-25 1.87466e-35
3217 1 0.000635 -0.0020727 -0.00889 -0.003132 -3.38813e-21 -4.76866e-17 2.16e-11 0 5.17148e-36
3304 1 0.000635 -0.000972852 -0.008255 -0.003132 0 -7.15833e-17 2.16e-11 0 1.0343e-35
3390 1 0.000635 0.000127 -0.00889 -0.003132 0 -4.76866e-17 2.16e-11 0 5.17148e-36
3477 1 0.000635 0.00122685 -0.008255 -0.003132 0 -7.15833e-17 2.16e-11 0 1.0343e-35
3563 1 0.000635 0.0023267 -0.00889 -0.003132 0 -4.76858e-17 2.16e-11 0 5.17148e-36
3650 1 0.000635 0.00342656 -0.008255 -0.003132 4.13098e-17 -7.15825e-17 2.16e-11 0 1.0343e-35
3736 1 0.000635 0.00452641 -0.00889 -0.003132 4.13115e-17 -4.76841e-17 2.16e-11 0 3.10289e-35
3823 1 0.000635 0.00562626 -0.008255 -0.003132 -1.446e-16 -7.15791e-17 2.16e-11 0 4.0079e-35
3908 1 0.000635 0.00672611 -0.00889 -0.003132 3.13717e-09 -2.25828e-09 -6.66091e-07 4.19694e-12 1.68073e-35
3994 1 0.000635 0.00782597 -0.008255 -0.003132 -1.20517e-09 -8.2574e-09 -1.00852e-06 1.21703e-11 1.0343e-35
4079 1 0.000635 0.00892582 -0.00889 -0.003132 -2.56357e-05 2.03031e-05 -2.62323e-06 7.44101e-11 4.15931e-12
4165 1 0.000635 0.0100257 -0.008255 -0.003132 2.98118e-05 -9.14847e-06 7.77244e-06 9.98749e-11 4.03044e-12
4250 1 0.000635 0.0111142 -0.00888135 -0.00294188 5.11506e-10 9.22379e-11 2.5538e-10 1.00431e-10 1.24492e-11
4335 1 0.000635 0.0122036 -0.00823964 -0.00282652 6.03201e-10 1.61317e-10 -6.33674e-10 8.2129e-11 1.38593e-11
4419 1 0.000635 0.0132639 -0.00884603 -0.00247737 -7.44184e-10 1.37908e-09 5.60319e-09 1.79611e-11 1.52603e-11
1947 1 0.000635 -0.0185362 -0.00698465 -0.00242995 -5.16735e-10 8.40283e-10 1.23956e-09 1.27579e-11 9.79336e-12
2029 1 0.000635 -0.0174456 -0.00761946 -0.00257158 -8.33713e-10 9.14244e-10 -1.08729e-09 4.99158e-11 1.64856e-11
2112 1 0.000635 -0.0163553 -0.00698418 -0.002722 -1.01551e-09 6.35278e-10 -4.87037e-09 4.98061e-11 2.11611e-11
2194 1 0.000635 -0.0152608 -0.00761856 -0.00283064 -1.15288e-09 6.90961e-11 -7.40985e-09 1.05196e-10 2.09044e-11
2278 1 0.000635 -0.0141678 -0.00698387 -0.00296337 -1.02458e-09 -7.4413e-11 -8.21606e-09 1.27604e-10 2.34787e-11
2362 1 0.000635 -0.0130686 -0.00761839 -0.00301631 -1.99775e-10 4.63128e-10 1.10721e-09 1.12974e-10 5.24378e-12
2447 1 0.000635 -0.0119714 -0.00698461 -0.00310211 1.04336e-11 2.67725e-10 2.79852e-09 7.89387e-11 6.18897e-12
2531 1 0.000635 -0.0108715 -0.00761987 -0.00312338 -1.73415e-10 -7.75937e-11 -4.01149e-09 8.97499e-11 5.15382e-12
2617 1 0.000635 -0.00977167 -0.006985 -0.003132 4.60322e-06 2.67361e-06 -1.89442e-06 3.30865e-11 1.30606e-13
2702 1 0.000635 -0.00867182 -0.00762 -0.003132 -2.91084e-08 -1.16437e-08 -2.07324e-06 4.08654e-11 2.9736e-35
2788 1 0.000635 -0.00757197 -0.006985 -0.003132 1.44605e-16 -2.38958e-17 2.16e-11 0 4.0079e-35
2873 1 0.000635 -0.00647211 -0.00762 -0.003132 -1.44609e-16 2.38967e-17 2.16e-11 0 4.0079e-35
2959 1 0.000635 -0.00537226 -0.006985 -0.003132 1.44605e-16 -2.38958e-17 2.16e-11 0 4.0079e-35
3045 1 0.000635 -0.00427241 -0.00762 -0.003132 -1.13623e-16 2.98573e-17 2.16e-11 0 2.90896e-35
3132 1 0.000635 -0.00317256 -0.006985 -0.003132 3.09912e-17 -2.98573e-17 2.16e-11 0 1.87466e-35
3218 1 0.000635 -0.0020727 -0.00762 -0.003132 -1.69407e-21 2.38958e-17 2.16e-11 0 1.0343e-35
3305 1 0.000635 -0.000972852 -0.006985 -0.003132 0 -2.38967e-17 2.16e-11 0 1.0343e-35
3391 1 0.000635 0.000127 -0.00762 -0.003132 0 2.38967e-17 2.16e-11 0 1.0343e-35
3478 1 0.000635 0.00122685 -0.006985 -0.003132 0 -2.38967e-17 2.16e-11 0 1.0343e-35
3564 1 0.000635 0.0023267 -0.00762 -0.003132 0 2.38967e-17 2.16e-11 0 1.0343e-35
3651 1 0.000635 0.00342656 -0.006985 -0.003132 4.13081e-17 -2.38967e-17 2.16e-11 0 1.0343e-35
3737 1 0.000635 0.00452641 -0.00762 -0.003132 4.13217e-17 2.38958e-17 2.16e-11 0 2.06859e-35
3824 1 0.000635 0.00562626 -0.006985 -0.003132 -1.44599e-16 -2.3895e-17 2.16e-11 0 4.0079e-35
3909 1 0.000635 0.00672611 -0.00762 -0.003132 6.19757e-17 2.38958e-17 2.16e-11 0 2.9736e-35
3995 1 0.000635 0.00782597 -0.006985 -0.003132 -6.77626e-21 -2.38967e-17 2.16e-11 0 1.0343e-35
4080 1 0.000635 0.00892582 -0.00762 -0.003132 -3.68894e-09 -1.40978e-08 -2.00059e-06 5.54073e-11 1.0343e-35
4166 1 0.000635 0.0100257 -0.006985 -0.003132 -2.67403e-05 1.54244e-05 -3.19851e-06 7.429e-11 4.36247e-12
4251 1 0.000635 0.011124 -0.00761902 -0.00307668 -1.48167e-10 2.19363e-10 2.91752e-09 9.84921e-11 1.13713e-11
4336 1 0.000635 0.0122185 -0.00698087 -0.00299257 6.54018e-10 -1.66176e-10 -3.76625e-09 8.96863e-11 1.00338e-11
4420 1 0.000635 0.0132898 -0.0075958 -0.00269695 -2.09645e-10 8.48501e-10 2.43177e-09 5.2668e-11 1.85928e-11
4505 1 0.000635 0.014374 -0.00695041 -0.00255956 -5.68154e-10 1.18074e-09 3.9269e-09 4.05271e-11 2.19875e-11
1948 1 0.000635 -0.0185344 -0.00571467 -0.00242049 4.70098e-10 6.02934e-10 7.81598e-09 2.19162e-12 5.88276e-12
2030 1 0.000635 -0.0174456 -0.00634944 -0.00257702 -9.02591e-10 7.0502e-10 -2.89598e-09 1.13394e-11 1.16466e-11
2113 1 0.000635 -0.0163533 -0.00571432 -0.00271119 -2.37813e-11 4.02762e-10 2.37587e-09 8.50153e-12 1.25045e-11
2195 1 0.000635 -0.0152623 -0.00634902 -0.00285257 -2.43498e-10 2.10081e-10 -1.1226e-10 4.45411e-11 2.29683e-11
2279 1 0.000635 -0.0141666 -0.00571421 -0.00296001 -3.81526e-10 9.26287e-11 -1.81836e-09 2.52865e-11 2.04013e-11
2363 1 0.000635 -0.0130706 -0.00634937 -0.00305358 -3.47578e-10 1.873e-10 -1.65016e-09 6.29935e-11 1.61401e-11
2448 1 0.000635 -0.0119715 -0.00571487 -0.00311166 -1.59426e-10 7.04168e-11 -1.89926e-09 1.81291e-11 5.01326e-12
2532 1 0.000635 -0.0108715 -0.00635 -0.003132 -2.16551e-05 9.88947e-06 -2.06793e-07 2.18389e-11 1.72701e-12
2618 1 0.000635 -0.00977167 -0.005715 -0.003132 1.44255e-09 -2.49857e-09 -2.63519e-07 1.31285e-12 6.85221e-35
2703 1 0.000635 -0.00867182 -0.00635 -0.003132 3.38862e-10 -5.86926e-10 -7.59836e-08 1.09178e-13 2.9736e-35
2789 1 0.000635 -0.00757197 -0.005715 -0.003132 1.44602e-16 4.76832e-17 2.16e-11 0 3.74932e-35
2874 1 0.000635 -0.00647211 -0.00635 -0.003132 -1.44609e-16 7.15816e-17 2.16e-11 0 4.0079e-35
2960 1 0.000635 -0.00537226 -0.005715 -0.003132 1.44604e-16 4.76841e-17 2.16e-11 5.26426e-25 3.74932e-35
3046 1 0.000635 -0.00427241 -0.00635 -0.003132 -1.13621e-16 7.75431e-17 2.16e-11 0 2.90896e-35
3133 1 0.000635 -0.00317256 -0.005715 -0.003132 2.0671e-17 4.76858e-17 2.16e-11 5.26426e-25 6.46435e-36
3219 1 0.000635 -0.0020727 -0.00635 -0.003132 -5.0822e-21 7.15842e-17 2.16e-11 0 1.0343e-35
3306 1 0.000635 -0.000972852 -0.005715 -0.003132 0 4.76866e-17 2.16e-11 0 5.17148e-36
3392 1 0.000635 0.000127 -0.00635 -0.003132 0 7.1585e-17 2.16e-11 0 1.0343e-35
3479 1 0.000635 0.00122685 -0.005715 -0.003132 0 4.76866e-17 2.16e-11 0 5.17148e-36
3565 1 0.000635 0.0023267 -0.00635 -0.003132 0 7.15842e-17 2.16e-11 0 1.0343e-35
3652 1 0.000635 0.00342656 -0.005715 -0.003132 4.13098e-17 4.76858e-17 2.16e-11 0 1.0343e-35
3738 1 0.000635 0.00452641 -0.00635 -0.003132 4.13183e-17 7.15816e-17 2.16e-11 0 2.06859e-35
3825 1 0.000635 0.00562626 -0.005715 -0.003132 -1.44597e-16 4.76841e-17 2.16e-11 0 3.74932e-35
3910 1 0.000635 0.00672611 -0.00635 -0.003132 6.19774e-17 7.15825e-17 2.16e-11 0 2.9736e-35
3996 1 0.000635 0.00782597 -0.005715 -0.003132 -6.77626e-21 4.76849e-17 2.16e-11 0 5.17148e-36
4081 1 0.000635 0.00892582 -0.00635 -0.003132 -4.87055e-10 -8.43604e-10 -4.88051e-07 4.50385e-12 1.0343e-35
4167 1 0.000635 0.0100257 -0.005715 -0.003132 -7.12542e-10 -1.23416e-09 -1.22997e-06 2.86766e-11 6.85221e-35
4252 1 0.000635 0.0111255 -0.00635 -0.003132 -1.92602e-05 -7.1367e-06 2.94837e-07 8.30351e-11 2.10143e-12
4337 1 0.000635 0.0122244 -0.00571474 -0.00309383 3.7321e-10 -1.20895e-10 -3.92106e-09 8.59201e-11 5.39196e-12
4421 1 0.000635 0.0133102 -0.00634117 -0.00289145 3.7394e-10 1.68416e-10 -1.78799e-09 8.49303e-11 2.10037e-11
4506 1 0.000635 0.0144012 -0.00570153 -0.00278655 3.4071e-10 2.29799e-10 -7.82896e-10 6.71734e-11 3.18914e-11
4589 1 0.000635 0.0154637 -0.00630927 -0.00244848 1.91646e-11 7.44241e-10 1.87067e-09 3.80861e-11 1.91656e-11
2031 1 0.000635 -0.0174427 -0.00507961 -0.00255837 2.18863e-10 4.22452e-10 5.06791e-09 1.40752e-12 6.27734e-12
2196 1 0.000635 -0.0152593 -0.00507938 -0.00283199 -3.08062e-10 2.24393e-10 -7.51517e-10 5.46977e-12 1.2159e-11
2364 1 0.000635 -0.0130696 -0.00507955 -0.00305175 -1.49919e-10 8.72812e-11 -2.63154e-10 1.89755e-11 1.98298e-11
2533 1 0.000635 -0.0108715 -0.00508 -0.003132 -8.45806e-06 -4.8852e-06 -6.49934e-07 1.36274e-11 4.32513e-13
2704 1 0.000635 -0.00867182 -0.00508 -0.003132 -6.19774e-17 -2.3845e-17 2.16e-11 0 1.42216e-35
2875 1 0.000635 -0.00647211 -0.00508 -0.003132 -1.44605e-16 -2.38442e-17 2.16e-11 0 3.49075e-35
3047 1 0.000635 -0.00427241 -0.00508 -0.003132 -1.03287e-16 -2.38433e-17 2.16e-11 1.57928e-24 2.45645e-35
3220 1 0.000635 -0.0020727 -0.00508 -0.003132 -3.38813e-21 -2.38442e-17 2.16e-11 0 2.58574e-36
3393 1 0.000635 0.000127 -0.00508 -0.003132 0 -2.38442e-17 2.16e-11 0 2.58574e-36
3566 1 0.000635 0.0023267 -0.00508 -0.003132 -3.38813e-21 -2.38459e-17 2.16e-11 0 2.58574e-36
3739 1 0.000635 0.00452641 -0.00508 -0.003132 4.13081e-17 -2.38433e-17 2.16e-11 5.26426e-25 2.84431e-35
3911 1 0.000635 0.00672611 -0.00508 -0.003132 6.19859e-17 -2.38442e-17 2.16e-11 0 1.42216e-35
4082 1 0.000635 0.00892582 -0.00508 -0.003132 -8.47033e-21 -2.3845e-17 2.16e-11 0 2.58574e-36
4253 1 0.000635 0.0111255 -0.00508 -0.003132 -1.74735e-05 1.00845e-05 -2.34711e-06 5.08798e-11 1.86151e-12
4422 1 0.000635 0.0133211 -0.00507827 -0.00302576 5.77414e-10 -9.25127e-11 -4.16883e-09 7.86798e-11 1.62287e-12
4590 1 0.000635 0.0154968 -0.00506637 -0.0027065 2.7218e-11 7.12287e-10 2.29668e-09 6.29721e-11 2.76205e-11
2032 1 0.000635 -0.0174397 -0.0038098 -0.00253825 -9.99866e-11 3.24583e-10 2.62183e-09 2.47577e-13 3.47724e-12
2114 1 0.000635 -0.0163499 -0.00444462 -0.00268787 2.37103e-10 2.56376e-10 4.3934e-09 9.76041e-13 6.33906e-12
2197 1 0.000635 -0.0152564 -0.00380969 -0.00281073 -4.57287e-11 1.72516e-10 1.6168e-09 1.22578e-12 6.31498e-12
2280 1 0.000635 -0.0141642 -0.00444456 -0.00294261 1.10568e-10 9.14905e-11 2.58528e-09 5.59528e-12 1.16143e-11
2365 1 0.000635 -0.0130684 -0.00380986 -0.00304625 -7.89615e-11 4.7324e-11 -1.29903e-10 2.39934e-11 1.26635e-11
2449 1 0.000635 -0.0119714 -0.004445 -0.003132 -6.51711e-05 -1.14913e-05 7.92358e-06 2.26662e-11 1.3828e-11
2534 1 0.000635 -0.0108715 -0.00381 -0.003132 -9.21768e-09 -9.21072e-09 -1.48549e-06 2.09264e-11 4.65433e-35
2619 1 0.000635 -0.00977167 -0.004445 -0.003132 6.92397e-10 -1.19927e-09 -1.79316e-07 6.07861e-13 6.01185e-35
2705 1 0.000635 -0.00867182 -0.00381 -0.003132 -8.2623e-17 0 2.16e-11 1.05285e-24 2.06859e-35
2790 1 0.000635 -0.00757197 -0.004445 -0.003132 1.44602e-16 -5.96282e-17 2.16e-11 5.26426e-25 3.74932e-35
2876 1 0.000635 -0.00647211 -0.00381 -0.003132 -1.44605e-16 0 2.16e-11 0 3.23218e-35
2961 1 0.000635 -0.00537226 -0.004445 -0.003132 1.44604e-16 -5.9629e-17 2.16e-11 5.26426e-25 3.74932e-35
3048 1 0.000635 -0.00427241 -0.00381 -0.003132 -1.03291e-16 0 2.16e-11 0 1.68073e-35
3134 1 0.000635 -0.00317256 -0.004445 -0.003132 3.09963e-17 -5.36693e-17 2.16e-11 1.57928e-24 8.40366e-36
3221 1 0.000635 -0.0020727 -0.00381 -0.003132 -6.77626e-21 0 2.16e-11 2.10571e-24 0
3307 1 0.000635 -0.000972852 -0.004445 -0.003132 0 -4.77053e-17 2.16e-11 1.05285e-24 5.17148e-36
3394 1 0.000635 0.000127 -0.00381 -0.003132 0 0 2.16e-11 1.05285e-24 0
3480 1 0.000635 0.00122685 -0.004445 -0.003132 0 -4.77053e-17 2.16e-11 1.05285e-24 5.17148e-36
3567 1 0.000635 0.0023267 -0.00381 -0.003132 0 0 2.16e-11 2.10571e-24 0
3653 1 0.000635 0.00342656 -0.004445 -0.003132 3.09811e-17 -5.36701e-17 2.16e-11 1.05285e-24 8.40366e-36
3740 1 0.000635 0.00452641 -0.00381 -0.003132 4.13217e-17 7.70372e-34 2.16e-11 0 1.29287e-35
3826 1 0.000635 0.00562626 -0.004445 -0.003132 -1.44597e-16 -5.9629e-17 2.16e-11 5.26426e-25 3.74932e-35
3912 1 0.000635 0.00672611 -0.00381 -0.003132 8.26298e-17 0 2.16e-11 1.05285e-24 2.06859e-35
3997 1 0.000635 0.00782597 -0.004445 -0.003132 -3.38813e-21 -4.77061e-17 2.16e-11 1.05285e-24 5.17148e-36
4083 1 0.000635 0.00892582 -0.00381 -0.003132 -6.77626e-21 0 2.16e-11 1.05285e-24 0
4168 1 0.000635 0.0100257 -0.004445 -0.003132 1.06464e-09 1.84402e-09 -3.36706e-07 2.14329e-12 6.01185e-35
4254 1 0.000635 0.0111255 -0.00381 -0.003132 5.27739e-09 -2.11902e-10 -1.37218e-06 2.0202e-11 4.65433e-35
4338 1 0.000635 0.0122254 -0.004445 -0.003132 2.7428e-05 -6.10906e-07 3.4146e-06 5.58928e-11 6.11724e-12
4423 1 0.000635 0.0133243 -0.00380949 -0.00307838 2.19571e-10 5.80032e-11 -2.36757e-09 5.1099e-11 1.07929e-11
4507 1 0.000635 0.0144179 -0.00444255 -0.00295035 -1.38562e-10 5.39521e-10 2.75139e-09 6.3557e-11 3.43359e-12
4591 1 0.000635 0.0155151 -0.00380772 -0.0028717 3.3241e-10 2.79608e-10 -4.6836e-10 5.84735e-11 7.65795e-12
4673 1 0.000635 0.0165966 -0.00443538 -0.0026485 1.38707e-10 7.50375e-10 2.02649e-09 5.38994e-11 1.451e-11
4756 1 0.000635 0.0176965 -0.00380435 -0.00258656 6.4885e-10 2.83445e-10 -7.83649e-10 4.51024e-11 6.50649e-12
2033 1 0.000635 -0.0174376 -0.00253992 -0.00252372 -1.29643e-09 2.61312e-10 -6.75801e-09 1.96132e-13 2.27972e-12
2115 1 0.000635 -0.0163473 -0.00317483 -0.00266905 -1.95036e-10 2.00552e-10 9.7979e-10 3.81429e-13 3.61731e-12
2198 1 0.000635 -0.0152545 -0.00253987 -0.00279741 7.90908e-11 1.21335e-10 2.70377e-09 7.54015e-13 3.79703e-12
2281 1 0.000635 -0.0141624 -0.00317483 -0.00292963 3.27541e-10 6.2979e-11 4.28752e-09 3.03538e-12 6.46339e-12
2366 1 0.000635 -0.013068 -0.00253995 -0.00304374 4.69002e-11 2.64559e-11 1.09855e-09 2.56928e-11 4.62265e-12
2450 1 0.000635 -0.0119714 -0.003175 -0.003132 -3.20059e-05 -1.73409e-06 4.9928e-06 2.48223e-11 3.16705e-12
2535 1 0.000635 -0.0108715 -0.00254 -0.003132 -1.30992e-08 -2.88672e-09 -1.53952e-06 2.24358e-11 6.33506e-35
2620 1 0.000635 -0.00977167 -0.003175 -0.003132 -1.3427e-16 4.1748e-17 2.16e-11 5.26426e-25 5.81792e-35
2706 1 0.000635 -0.00867182 -0.00254 -0.003132 -7.2301e-17 -5.97417e-18 2.16e-11 0 1.61609e-35
2791 1 0.000635 -0.00757197 -0.003175 -0.003132 1.44602e-16 4.77053e-17 2.16e-11 5.26426e-25 3.55539e-35
2877 1 0.000635 -0.00647211 -0.00254 -0.003132 -1.44605e-16 -1.19365e-17 2.16e-11 0 3.23218e-35
2962 1 0.000635 -0.00537226 -0.003175 -0.003132 1.44604e-16 4.7707e-17 2.16e-11 0 3.55539e-35
3049 1 0.000635 -0.00427241 -0.00254 -0.003132 -1.03284e-16 -1.19373e-17 2.16e-11 5.26426e-25 1.93931e-35
3135 1 0.000635 -0.00317256 -0.003175 -0.003132 3.09963e-17 4.17472e-17 2.16e-11 1.05285e-24 6.46435e-36
3222 1 0.000635 -0.0020727 -0.00254 -0.003132 0 -1.43996e-20 2.16e-11 0 0
3308 1 0.000635 -0.000972852 -0.003175 -0.003132 0 3.57823e-17 2.16e-11 1.05285e-24 3.23218e-36