ITEM: TIMESTEP
1390000
ITEM: NUMBER OF ATOMS
6793
ITEM: BOX BOUNDS ff ff ff
-8.9999999999999997e-02 8.9999999999999997e-02
-8.9999999999999997e-02 8.9999999999999997e-02
-4.0000000000000001e-02 4.0000000000000001e-02
ITEM: ATOMS id type radius x y z fx fy fz c_bendingE c_stretchingE
3386 1 0.000635 0.000125825 -0.0139643 -0.0148841 3.58381e-11 4.50317e-12 1.03349e-10 2.88365e-09 4.00926e-11
3214 1 0.000635 -0.0020727 -0.0127 -0.015012 -9.97547e-05 1.98538e-05 -4.15433e-06 3.57709e-09 8.01995e-11
3300 1 0.000635 -0.000973363 -0.0133352 -0.014985 2.54759e-11 -8.887e-11 -1.18829e-09 2.73438e-09 4.32598e-11
3387 1 0.000635 0.000127 -0.0127 -0.015012 -5.02506e-05 -6.07974e-05 2.67056e-06 2.83591e-10 1.8826e-11
3473 1 0.000635 0.00122581 -0.0133338 -0.0149545 -1.97363e-11 -5.00367e-11 -4.18543e-10 3.48763e-10 1.34306e-10
3560 1 0.000635 0.0023267 -0.0127 -0.015012 7.07463e-05 -0.000249606 0.000109131 4.67452e-10 2.59497e-10
3042 1 0.000635 -0.00427241 -0.01143 -0.015012 5.39303e-07 6.41756e-05 -1.64117e-05 1.99628e-09 1.96773e-11
3128 1 0.000635 -0.00317256 -0.012065 -0.015012 -4.02645e-05 9.70554e-05 -1.94639e-05 2.52039e-09 7.66288e-11
3215 1 0.000635 -0.0020727 -0.01143 -0.015012 3.35245e-08 -7.93341e-08 -3.44822e-06 1.13204e-10 5.17148e-36
3301 1 0.000635 -0.000972852 -0.012065 -0.015012 3.81662e-08 -2.74912e-05 -2.76715e-06 1.10971e-10 3.4055e-12
3388 1 0.000635 0.000127 -0.01143 -0.015012 1.03592e-08 0 -1.12756e-06 2.40907e-11 5.17148e-36
3474 1 0.000635 0.00122685 -0.012065 -0.015012 -3.22187e-08 -4.21665e-06 -4.65334e-06 3.09554e-10 6.9337e-14
3561 1 0.000635 0.0023267 -0.01143 -0.015012 1.92399e-07 -1.20539e-07 -6.09675e-06 3.90237e-10 5.17148e-36
3647 1 0.000635 0.00342656 -0.012065 -0.015012 5.94217e-05 4.18163e-05 4.20374e-07 3.54141e-10 4.80465e-11
3734 1 0.000635 0.00452641 -0.01143 -0.015012 2.60348e-05 1.85357e-05 3.37083e-06 2.45051e-10 9.25763e-12
2956 1 0.000635 -0.00537226 -0.010795 -0.015012 3.10048e-05 3.84116e-05 -1.40068e-05 1.66638e-09 8.79349e-12
3129 1 0.000635 -0.00317256 -0.010795 -0.015012 -5.94279e-09 -6.70586e-08 -3.39802e-06 1.09899e-10 6.46435e-36
3302 1 0.000635 -0.000972852 -0.010795 -0.015012 4.50088e-09 1.69407e-21 -2.38326e-07 1.07407e-12 5.17148e-36
3475 1 0.000635 0.00122685 -0.010795 -0.015012 9.22742e-09 0 -5.07291e-07 4.86772e-12 5.17148e-36
3648 1 0.000635 0.00342656 -0.010795 -0.015012 1.30273e-07 -7.90945e-08 -4.67466e-06 2.20812e-10 1.0343e-35
3821 1 0.000635 0.00562626 -0.010795 -0.015012 1.36707e-05 1.04093e-05 3.3455e-06 1.73266e-10 2.65715e-12
3992 1 0.000635 0.00782187 -0.0107877 -0.0148727 -5.11002e-12 -2.92926e-10 -1.30871e-09 9.92097e-10 5.53843e-11
2786 1 0.000635 -0.00757197 -0.009525 -0.015012 7.52829e-05 3.34939e-06 -1.06454e-05 1.17514e-09 4.26337e-11
2871 1 0.000635 -0.00647211 -0.01016 -0.015012 5.4951e-05 1.87182e-05 -1.20861e-05 1.4123e-09 2.00347e-11
2957 1 0.000635 -0.00537226 -0.009525 -0.015012 -4.49722e-08 -4.71659e-08 -3.30041e-06 1.0369e-10 3.74932e-35
3043 1 0.000635 -0.00427241 -0.01016 -0.015012 -2.89274e-08 -5.62511e-08 -3.35563e-06 1.07185e-10 2.71503e-35
3130 1 0.000635 -0.00317256 -0.009525 -0.015012 2.0671e-17 0 2.16e-11 1.05285e-24 6.46435e-36
3216 1 0.000635 -0.0020727 -0.01016 -0.015012 -6.77626e-21 0 2.16e-11 0 5.17148e-36
3303 1 0.000635 -0.000972852 -0.009525 -0.015012 0 0 2.16e-11 0 5.17148e-36
3389 1 0.000635 0.000127 -0.01016 -0.015012 0 0 2.16e-11 0 5.17148e-36
3476 1 0.000635 0.00122685 -0.009525 -0.015012 0 0 2.16e-11 0 5.17148e-36
3562 1 0.000635 0.0023267 -0.01016 -0.015012 0 0 2.16e-11 0 5.17148e-36
3649 1 0.000635 0.00342656 -0.009525 -0.015012 4.13115e-17 0 2.16e-11 0 1.0343e-35
3735 1 0.000635 0.00452641 -0.01016 -0.015012 7.99996e-08 -5.37331e-08 -3.72043e-06 1.36687e-10 3.10289e-35
3822 1 0.000635 0.00562626 -0.009525 -0.015012 5.90257e-08 -3.27871e-08 -3.03869e-06 9.10964e-11 3.74932e-35
3907 1 0.000635 0.00672611 -0.01016 -0.015012 2.16473e-05 -7.16039e-06 4.95794e-06 1.37389e-10 2.98749e-12
3993 1 0.000635 0.00782597 -0.009525 -0.015012 1.54674e-05 -2.77463e-05 3.4451e-06 3.77221e-10 3.04045e-12
4078 1 0.000635 0.00892288 -0.0101524 -0.014882 -1.45169e-10 1.42046e-10 9.46062e-10 1.93064e-09 9.92895e-11
2616 1 0.000635 -0.00977167 -0.008255 -0.015012 -2.83816e-05 -9.17985e-05 1.78589e-05 6.63297e-10 4.77743e-11
2701 1 0.000635 -0.00867182 -0.00889 -0.015012 9.71925e-05 -9.19686e-06 -1.03929e-05 9.24253e-10 7.7835e-11
2787 1 0.000635 -0.00757197 -0.008255 -0.015012 -6.0902e-08 -3.89144e-08 -3.30176e-06 1.03799e-10 4.0079e-35
2872 1 0.000635 -0.00647211 -0.00889 -0.015012 -5.50653e-08 -4.09435e-08 -3.2615e-06 1.01224e-10 3.74932e-35
2958 1 0.000635 -0.00537226 -0.008255 -0.015012 1.44607e-16 -7.15799e-17 2.16e-11 5.26426e-25 4.0079e-35
3044 1 0.000635 -0.00427241 -0.00889 -0.015012 -1.03289e-16 -4.76841e-17 2.16e-11 1.05285e-24 2.71503e-35
3131 1 0.000635 -0.00317256 -0.008255 -0.015012 3.09912e-17 -7.75431e-17 2.16e-11 5.26426e-25 1.87466e-35
3217 1 0.000635 -0.0020727 -0.00889 -0.015012 -3.38813e-21 -4.76866e-17 2.16e-11 0 5.17148e-36
3304 1 0.000635 -0.000972852 -0.008255 -0.015012 0 -7.15833e-17 2.16e-11 0 1.0343e-35
3390 1 0.000635 0.000127 -0.00889 -0.015012 0 -4.76866e-17 2.16e-11 0 5.17148e-36
3477 1 0.000635 0.00122685 -0.008255 -0.015012 0 -7.15833e-17 2.16e-11 0 1.0343e-35
3563 1 0.000635 0.0023267 -0.00889 -0.015012 0 -4.76858e-17 2.16e-11 0 5.17148e-36
3650 1 0.000635 0.00342656 -0.008255 -0.015012 4.13098e-17 -7.15825e-17 2.16e-11 0 1.0343e-35
3736 1 0.000635 0.00452641 -0.00889 -0.015012 4.13115e-17 -4.76841e-17 2.16e-11 0 3.10289e-35
3823 1 0.000635 0.00562626 -0.008255 -0.015012 -1.446e-16 -7.15791e-17 2.16e-11 0 4.0079e-35
3908 1 0.000635 0.00672611 -0.00889 -0.015012 3.3542e-08 -3.92483e-08 -2.66255e-06 6.86457e-11 1.68073e-35
3994 1 0.000635 0.00782597 -0.008255 -0.015012 -1.97486e-08 -9.67697e-08 -3.57229e-06 1.33865e-10 1.0343e-35
4079 1 0.000635 0.00892582 -0.00889 -0.015012 -9.02578e-05 0.000102863 -2.93586e-05 9.64071e-10 6.44846e-11
4165 1 0.000635 0.0100257 -0.008255 -0.015012 0.000342764 6.47798e-05 9.24679e-05 1.37107e-09 7.19363e-10
2447 1 0.000635 -0.0119682 -0.00698406 -0.0149021 -3.0919e-10 -3.11646e-10 -3.36935e-09 3.73009e-10 8.74445e-11
2531 1 0.000635 -0.010871 -0.00761973 -0.014968 2.44496e-10 1.42589e-10 2.97939e-09 4.58772e-10 1.65345e-11
2617 1 0.000635 -0.00977167 -0.006985 -0.015012 -7.6033e-06 -4.33598e-06 -2.35214e-06 9.37843e-11 3.38999e-13
2702 1 0.000635 -0.00867182 -0.00762 -0.015012 -7.59602e-08 -2.37672e-08 -3.45023e-06 1.13848e-10 2.9736e-35
2788 1 0.000635 -0.00757197 -0.006985 -0.015012 1.44605e-16 -2.38958e-17 2.16e-11 0 4.0079e-35
2873 1 0.000635 -0.00647211 -0.00762 -0.015012 -1.44609e-16 2.38967e-17 2.16e-11 0 4.0079e-35
2959 1 0.000635 -0.00537226 -0.006985 -0.015012 1.44605e-16 -2.38958e-17 2.16e-11 0 4.0079e-35
3045 1 0.000635 -0.00427241 -0.00762 -0.015012 -1.13623e-16 2.98573e-17 2.16e-11 0 2.90896e-35
3132 1 0.000635 -0.00317256 -0.006985 -0.015012 3.09912e-17 -2.98573e-17 2.16e-11 0 1.87466e-35
3218 1 0.000635 -0.0020727 -0.00762 -0.015012 -1.69407e-21 2.38958e-17 2.16e-11 0 1.0343e-35
3305 1 0.000635 -0.000972852 -0.006985 -0.015012 0 -2.38967e-17 2.16e-11 0 1.0343e-35
3391 1 0.000635 0.000127 -0.00762 -0.015012 0 2.38967e-17 2.16e-11 0 1.0343e-35
3478 1 0.000635 0.00122685 -0.006985 -0.015012 0 -2.38967e-17 2.16e-11 0 1.0343e-35
3564 1 0.000635 0.0023267 -0.00762 -0.015012 0 2.38967e-17 2.16e-11 0 1.0343e-35
3651 1 0.000635 0.00342656 -0.006985 -0.015012 4.13081e-17 -2.38967e-17 2.16e-11 0 1.0343e-35
3737 1 0.000635 0.00452641 -0.00762 -0.015012 4.13217e-17 2.38958e-17 2.16e-11 0 2.06859e-35
3824 1 0.000635 0.00562626 -0.006985 -0.015012 -1.44599e-16 -2.3895e-17 2.16e-11 0 4.0079e-35
3909 1 0.000635 0.00672611 -0.00762 -0.015012 6.19757e-17 2.38958e-17 2.16e-11 0 2.9736e-35
3995 1 0.000635 0.00782597 -0.006985 -0.015012 -6.77626e-21 -2.38967e-17 2.16e-11 0 1.0343e-35
4080 1 0.000635 0.00892582 -0.00762 -0.015012 -8.18951e-08 -1.86713e-07 -6.43413e-06 5.87387e-10 1.0343e-35
4166 1 0.000635 0.0100257 -0.006985 -0.015012 -9.71232e-05 5.54923e-05 -2.04914e-05 1.05958e-09 5.85462e-11
2448 1 0.000635 -0.0119705 -0.00571556 -0.0149652 -1.36497e-11 -1.11368e-10 -1.51592e-09 2.96184e-10 1.03643e-10
2532 1 0.000635 -0.0108715 -0.00635 -0.015012 -6.39593e-05 -7.48014e-05 7.61961e-06 1.29954e-10 3.64855e-11
2618 1 0.000635 -0.00977167 -0.005715 -0.015012 -3.41701e-09 5.91843e-09 -9.67746e-07 1.77331e-11 6.85221e-35
2703 1 0.000635 -0.00867182 -0.00635 -0.015012 -1.55052e-10 2.68558e-10 -3.88144e-07 2.84821e-12 2.9736e-35
2789 1 0.000635 -0.00757197 -0.005715 -0.015012 1.44602e-16 4.76832e-17 2.16e-11 0 3.74932e-35
2874 1 0.000635 -0.00647211 -0.00635 -0.015012 -1.44609e-16 7.15816e-17 2.16e-11 0 4.0079e-35
2960 1 0.000635 -0.00537226 -0.005715 -0.015012 1.44604e-16 4.76841e-17 2.16e-11 5.26426e-25 3.74932e-35
3046 1 0.000635 -0.00427241 -0.00635 -0.015012 -1.13621e-16 7.75431e-17 2.16e-11 0 2.90896e-35
3133 1 0.000635 -0.00317256 -0.005715 -0.015012 2.0671e-17 4.76858e-17 2.16e-11 5.26426e-25 6.46435e-36
3219 1 0.000635 -0.0020727 -0.00635 -0.015012 -5.0822e-21 7.15842e-17 2.16e-11 0 1.0343e-35
3306 1 0.000635 -0.000972852 -0.005715 -0.015012 0 4.76866e-17 2.16e-11 0 5.17148e-36
3392 1 0.000635 0.000127 -0.00635 -0.015012 0 7.1585e-17 2.16e-11 0 1.0343e-35
3479 1 0.000635 0.00122685 -0.005715 -0.015012 0 4.76866e-17 2.16e-11 0 5.17148e-36
3565 1 0.000635 0.0023267 -0.00635 -0.015012 0 7.15842e-17 2.16e-11 0 1.0343e-35
3652 1 0.000635 0.00342656 -0.005715 -0.015012 4.13098e-17 4.76858e-17 2.16e-11 0 1.0343e-35
3738 1 0.000635 0.00452641 -0.00635 -0.015012 4.13183e-17 7.15816e-17 2.16e-11 0 2.06859e-35
3825 1 0.000635 0.00562626 -0.005715 -0.015012 -1.44597e-16 4.76841e-17 2.16e-11 0 3.74932e-35
3910 1 0.000635 0.00672611 -0.00635 -0.015012 6.19774e-17 7.15825e-17 2.16e-11 0 2.9736e-35
3996 1 0.000635 0.00782597 -0.005715 -0.015012 -6.77626e-21 4.76849e-17 2.16e-11 0 5.17148e-36
4081 1 0.000635 0.00892582 -0.00635 -0.015012 -1.66353e-08 -2.88132e-08 -1.3579e-06 3.49965e-11 1.0343e-35
4167 1 0.000635 0.0100257 -0.005715 -0.015012 -5.17998e-08 -8.97199e-08 -3.84823e-06 2.88857e-10 6.85221e-35
4252 1 0.000635 0.0111255 -0.00635 -0.015012 -0.000330982 -2.23574e-05 -7.62249e-05 1.53135e-09 3.58273e-10
4337 1 0.000635 0.0122211 -0.00571747 -0.0149511 -4.30205e-11 1.65969e-11 5.87251e-10 2.21509e-09 8.3319e-10
2533 1 0.000635 -0.0108715 -0.00508 -0.015012 -1.74532e-05 -1.02241e-05 -3.68872e-06 2.49412e-10 1.80987e-12
2704 1 0.000635 -0.00867182 -0.00508 -0.015012 -6.19774e-17 -2.3845e-17 2.16e-11 0 1.42216e-35
2875 1 0.000635 -0.00647211 -0.00508 -0.015012 -1.44605e-16 -2.38442e-17 2.16e-11 0 3.49075e-35
3047 1 0.000635 -0.00427241 -0.00508 -0.015012 -1.03287e-16 -2.38433e-17 2.16e-11 1.57928e-24 2.45645e-35
3220 1 0.000635 -0.0020727 -0.00508 -0.015012 -3.38813e-21 -2.38442e-17 2.16e-11 0 2.58574e-36
3393 1 0.000635 0.000127 -0.00508 -0.015012 0 -2.38442e-17 2.16e-11 0 2.58574e-36
3566 1 0.000635 0.0023267 -0.00508 -0.015012 -3.38813e-21 -2.38459e-17 2.16e-11 0 2.58574e-36
3739 1 0.000635 0.00452641 -0.00508 -0.015012 4.13081e-17 -2.38433e-17 2.16e-11 5.26426e-25 2.84431e-35
3911 1 0.000635 0.00672611 -0.00508 -0.015012 6.19859e-17 -2.38442e-17 2.16e-11 0 1.42216e-35
4082 1 0.000635 0.00892582 -0.00508 -0.015012 -8.47033e-21 -2.3845e-17 2.16e-11 0 2.58574e-36
4253 1 0.000635 0.0111255 -0.00508 -0.015012 -4.65121e-05 2.65436e-05 -1.16116e-05 1.04137e-09 1.32926e-11
2449 1 0.000635 -0.0119714 -0.004445 -0.015012 -0.000165282 -0.000118045 6.36733e-05 3.88145e-10 1.3433e-10
2534 1 0.000635 -0.0108715 -0.00381 -0.015012 -1.90511e-07 -1.03402e-07 -5.77535e-06 3.22804e-10 4.65433e-35
2619 1 0.000635 -0.00977167 -0.004445 -0.015012 -4.11985e-09 7.13578e-09 -4.12659e-07 3.22075e-12 6.01185e-35
2705 1 0.000635 -0.00867182 -0.00381 -0.015012 -8.2623e-17 0 2.16e-11 1.05285e-24 2.06859e-35
2790 1 0.000635 -0.00757197 -0.004445 -0.015012 1.44602e-16 -5.96282e-17 2.16e-11 5.26426e-25 3.74932e-35
2876 1 0.000635 -0.00647211 -0.00381 -0.015012 -1.44605e-16 0 2.16e-11 0 3.23218e-35
2961 1 0.000635 -0.00537226 -0.004445 -0.015012 1.44604e-16 -5.9629e-17 2.16e-11 5.26426e-25 3.74932e-35
3048 1 0.000635 -0.00427241 -0.00381 -0.015012 -1.03291e-16 0 2.16e-11 0 1.68073e-35
3134 1 0.000635 -0.00317256 -0.004445 -0.015012 3.09963e-17 -5.36693e-17 2.16e-11 1.57928e-24 8.40366e-36
3221 1 0.000635 -0.0020727 -0.00381 -0.015012 -6.77626e-21 0 2.16e-11 2.10571e-24 0
3307 1 0.000635 -0.000972852 -0.004445 -0.015012 0 -4.77053e-17 2.16e-11 1.05285e-24 5.17148e-36
3394 1 0.000635 0.000127 -0.00381 -0.015012 0 0 2.16e-11 1.05285e-24 0
3480 1 0.000635 0.00122685 -0.004445 -0.015012 0 -4.77053e-17 2.16e-11 1.05285e-24 5.17148e-36
3567 1 0.000635 0.0023267 -0.00381 -0.015012 0 0 2.16e-11 2.10571e-24 0
3653 1 0.000635 0.00342656 -0.004445 -0.015012 3.09811e-17 -5.36701e-17 2.16e-11 1.05285e-24 8.40366e-36
3740 1 0.000635 0.00452641 -0.00381 -0.015012 4.13217e-17 7.70372e-34 2.16e-11 0 1.29287e-35
3826 1 0.000635 0.00562626 -0.004445 -0.015012 -1.44597e-16 -5.9629e-17 2.16e-11 5.26426e-25 3.74932e-35
3912 1 0.000635 0.00672611 -0.00381 -0.015012 8.26298e-17 0 2.16e-11 1.05285e-24 2.06859e-35
3997 1 0.000635 0.00782597 -0.004445 -0.015012 -3.38813e-21 -4.77061e-17 2.16e-11 1.05285e-24 5.17148e-36
4083 1 0.000635 0.00892582 -0.00381 -0.015012 -6.77626e-21 0 2.16e-11 1.05285e-24 0
4168 1 0.000635 0.0100257 -0.004445 -0.015012 1.88463e-08 3.26428e-08 -5.37853e-07 5.49728e-12 6.01185e-35
4254 1 0.000635 0.0111255 -0.00381 -0.015012 1.23909e-07 -3.0723e-08 -4.54724e-06 1.98075e-10 4.65433e-35
4338 1 0.000635 0.0122254 -0.004445 -0.015012 0.000137486 -0.000196977 3.89863e-05 2.36239e-09 2.77101e-10
2450 1 0.000635 -0.0119714 -0.003175 -0.015012 3.2859e-05 6.42731e-05 -1.86867e-06 4.33504e-10 4.09649e-11
2535 1 0.000635 -0.0108715 -0.00254 -0.015012 -2.37466e-07 -1.49888e-08 -6.08886e-06 3.5926e-10 6.33506e-35
2620 1 0.000635 -0.00977167 -0.003175 -0.015012 -1.3427e-16 4.1748e-17 2.16e-11 5.26426e-25 5.81792e-35
2706 1 0.000635 -0.00867182 -0.00254 -0.015012 -7.2301e-17 -5.97417e-18 2.16e-11 0 1.61609e-35
2791 1 0.000635 -0.00757197 -0.003175 -0.015012 1.44602e-16 4.77053e-17 2.16e-11 5.26426e-25 3.55539e-35
2877 1 0.000635 -0.00647211 -0.00254 -0.015012 -1.44605e-16 -1.19365e-17 2.16e-11 0 3.23218e-35
2962 1 0.000635 -0.00537226 -0.003175 -0.015012 1.44604e-16 4.7707e-17 2.16e-11 0 3.55539e-35
3049 1 0.000635 -0.00427241 -0.00254 -0.015012 -1.03284e-16 -1.19373e-17 2.16e-11 5.26426e-25 1.93931e-35
3135 1 0.000635 -0.00317256 -0.003175 -0.015012 3.09963e-17 4.17472e-17 2.16e-11 1.05285e-24 6.46435e-36
3222 1 0.000635 -0.0020727 -0.00254 -0.015012 0 -1.43996e-20 2.16e-11 0 0
3308 1 0.000635 -0.000972852 -0.003175 -0.015012 0 3.57823e-17 2.16e-11 1.05285e-24 3.23218e-36
3395 1 0.000635 0.000127 -0.00254 -0.015012 0 -1.35525e-20 2.16e-11 0 0
3481 1 0.000635 0.00122685 -0.003175 -0.015012 0 3.57823e-17 2.16e-11 1.05285e-24 3.23218e-36
3568 1 0.000635 0.0023267 -0.00254 -0.015012 -6.77626e-21 -1.35525e-20 2.16e-11 0 0
3654 1 0.000635 0.00342656 -0.003175 -0.015012 3.09777e-17 4.17463e-17 2.16e-11 1.05285e-24 6.46435e-36
3741 1 0.000635 0.00452641 -0.00254 -0.015012 4.13115e-17 -1.19382e-17 2.16e-11 5.26426e-25 1.93931e-35
3827 1 0.000635 0.00562626 -0.003175 -0.015012 -1.44595e-16 4.77053e-17 2.16e-11 5.26426e-25 3.55539e-35
3913 1 0.000635 0.00672611 -0.00254 -0.015012 7.23095e-17 -5.97502e-18 2.16e-11 0 1.61609e-35
3998 1 0.000635 0.00782597 -0.003175 -0.015012 0 3.57823e-17 2.16e-11 1.05285e-24 3.23218e-36
4084 1 0.000635 0.00892582 -0.00254 -0.015012 -8.47033e-21 -1.27055e-20 2.16e-11 0 0
4169 1 0.000635 0.0100257 -0.003175 -0.015012 1.3427e-16 4.1748e-17 2.16e-11 5.26426e-25 5.81792e-35
4255 1 0.000635 0.0111255 -0.00254 -0.015012 1.21083e-07 -3.17557e-08 -4.43885e-06 1.88873e-10 6.33506e-35
4339 1 0.000635 0.0122254 -0.003175 -0.015012 4.93974e-05 5.05751e-06 1.78179e-05 2.45483e-10 8.16209e-12
2451 1 0.000635 -0.0119714 -0.001905 -0.015012 3.12174e-06 3.12876e-05 8.76096e-06 4.19786e-10 8.89279e-12
2536 1 0.000635 -0.0108715 -0.00127 -0.015012 -2.35992e-07 -1.21503e-08 -6.056e-06 3.55307e-10 6.33506e-35
2621 1 0.000635 -0.00977167 -0.001905 -0.015012 -1.44592e-16 -1.19229e-17 2.16e-11 5.26426e-25 6.39971e-35
2707 1 0.000635 -0.00867182 -0.00127 -0.015012 -7.2301e-17 5.96909e-18 2.16e-11 5.26426e-25 1.61609e-35
2792 1 0.000635 -0.00757197 -0.001905 -0.015012 1.44605e-16 -1.19229e-17 2.16e-11 0 3.29682e-35
2878 1 0.000635 -0.00647211 -0.00127 -0.015012 -1.44605e-16 1.19331e-17 2.16e-11 0 3.23218e-35
2963 1 0.000635 -0.00537226 -0.001905 -0.015012 1.44602e-16 -1.19246e-17 2.16e-11 0 3.29682e-35
3050 1 0.000635 -0.00427241 -0.00127 -0.015012 -1.13613e-16 5.96993e-18 2.16e-11 0 2.13324e-35
3136 1 0.000635 -0.00317256 -0.001905 -0.015012 4.13081e-17 -1.19229e-17 2.16e-11 0 5.81792e-36
3223 1 0.000635 -0.0020727 -0.00127 -0.015012 0 7.6233e-21 2.16e-11 0 0
3309 1 0.000635 -0.000972852 -0.001905 -0.015012 0 -1.19229e-17 2.16e-11 0 6.46435e-37
3396 1 0.000635 0.000127 -0.00127 -0.015012 0 6.77626e-21 2.16e-11 0 0
3482 1 0.000635 0.00122685 -0.001905 -0.015012 0 -1.19229e-17 2.16e-11 0 6.46435e-37
3569 1 0.000635 0.0023267 -0.00127 -0.015012 -6.77626e-21 6.77626e-21 2.16e-11 0 0
3655 1 0.000635 0.00342656 -0.001905 -0.015012 2.06608e-17 -1.19229e-17 2.16e-11 0 1.93931e-36
3742 1 0.000635 0.00452641 -0.00127 -0.015012 4.13149e-17 1.19331e-17 2.16e-11 5.26426e-25 1.93931e-35
3828 1 0.000635 0.00562626 -0.001905 -0.015012 -1.44599e-16 -1.19229e-17 2.16e-11 0 3.29682e-35
3914 1 0.000635 0.00672611 -0.00127 -0.015012 7.23078e-17 5.96909e-18 2.16e-11 5.26426e-25 1.61609e-35
3999 1 0.000635 0.00782597 -0.001905 -0.015012 -6.77626e-21 -1.19229e-17 2.16e-11 5.26426e-25 6.46435e-37
4085 1 0.000635 0.00892582 -0.00127 -0.015012 -6.77626e-21 6.77626e-21 2.16e-11 0 0
4170 1 0.000635 0.0100257 -0.001905 -0.015012 1.44599e-16 -1.19229e-17 2.16e-11 0 6.39971e-35
4256 1 0.000635 0.0111255 -0.00127 -0.015012 1.34498e-07 -3.32414e-09 -4.59188e-06 2.02073e-10 6.33506e-35
4340 1 0.000635 0.0122254 -0.001905 -0.015012 1.04322e-05 4.91714e-06 9.96244e-06 2.39072e-10 6.1315e-13
2452 1 0.000635 -0.0119714 -0.000635 -0.015012 -5.91609e-06 9.32349e-06 1.20964e-05 4.06256e-10 9.56377e-13
2622 1 0.000635 -0.00977167 -0.000635 -0.015012 -1.44599e-16 -8.47033e-21 2.16e-11 0 6.33506e-35
2793 1 0.000635 -0.00757197 -0.000635 -0.015012 1.44604e-16 -1.19339e-17 2.16e-11 5.26426e-25 3.23218e-35
2964 1 0.000635 -0.00537226 -0.000635 -0.015012 1.44604e-16 -1.19365e-17 2.16e-11 0 3.23218e-35
3137 1 0.000635 -0.00317256 -0.000635 -0.015012 4.13183e-17 -8.47033e-21 2.16e-11 0 5.17148e-36
3310 1 0.000635 -0.000972852 -0.000635 -0.015012 0 -8.47033e-21 2.16e-11 0 0
3483 1 0.000635 0.00122685 -0.000635 -0.015012 0 -8.47033e-21 2.16e-11 0 0
3656 1 0.000635 0.00342656 -0.000635 -0.015012 3.09811e-17 -5.97078e-18 2.16e-11 5.26426e-25 3.23218e-36
3829 1 0.000635 0.00562626 -0.000635 -0.015012 -1.44597e-16 -1.19339e-17 2.16e-11 5.26426e-25 3.23218e-35
4000 1 0.000635 0.00782597 -0.000635 -0.015012 0 -8.47033e-21 2.16e-11 0 0
4171 1 0.000635 0.0100257 -0.000635 -0.015012 1.44599e-16 -8.47033e-21 2.16e-11 0 6.33506e-35
4341 1 0.000635 0.0122254 -0.000635 -0.015012 2.04029e-06 2.30009e-06 7.52264e-06 2.49604e-10 6.94771e-14
2453 1 0.000635 -0.0119714 0.000635 -0.015012 -5.91609e-06 -9.32349e-06 1.20964e-05 4.06256e-10 9.56377e-13
2537 1 0.000635 -0.0108715 0 -0.015012 -2.36516e-07 -3.33799e-17 -6.05906e-06 3.55673e-10 6.33506e-35
2623 1 0.000635 -0.00977167 0.000635 -0.015012 -1.44599e-16 -3.38813e-21 2.16e-11 0 6.33506e-35
2708 1 0.000635 -0.00867182 0 -0.015012 -8.26247e-17 5.92923e-21 2.16e-11 0 2.06859e-35
2794 1 0.000635 -0.00757197 0.000635 -0.015012 1.44602e-16 -3.38813e-21 2.16e-11 0 3.23218e-35
2879 1 0.000635 -0.00647211 0 -0.015012 -1.44605e-16 5.0822e-21 2.16e-11 0 3.23218e-35
2965 1 0.000635 -0.00537226 0.000635 -0.015012 1.44602e-16 -3.38813e-21 2.16e-11 0 3.23218e-35
3051 1 0.000635 -0.00427241 0 -0.015012 -1.03282e-16 5.92923e-21 2.16e-11 0 1.68073e-35
3138 1 0.000635 -0.00317256 0.000635 -0.015012 4.13149e-17 -3.38813e-21 2.16e-11 0 5.17148e-36
3224 1 0.000635 -0.0020727 0 -0.015012 0 6.77626e-21 2.16e-11 0 0
3311 1 0.000635 -0.000972852 0.000635 -0.015012 0 -3.38813e-21 2.16e-11 0 0
3397 1 0.000635 0.000127 0 -0.015012 0 6.77626e-21 2.16e-11 0 0
3484 1 0.000635 0.00122685 0.000635 -0.015012 0 -3.38813e-21 2.16e-11 0 0
3570 1 0.000635 0.0023267 0 -0.015012 -3.38813e-21 5.0822e-21 2.16e-11 5.26426e-25 0
3657 1 0.000635 0.00342656 0.000635 -0.015012 2.06574e-17 -3.38813e-21 2.16e-11 0 1.29287e-36
3743 1 0.000635 0.00452641 0 -0.015012 4.13132e-17 5.92923e-21 2.16e-11 0 1.29287e-35
3830 1 0.000635 0.00562626 0.000635 -0.015012 -1.44595e-16 -3.38813e-21 2.16e-11 0 3.23218e-35
3915 1 0.000635 0.00672611 0 -0.015012 8.26315e-17 5.92923e-21 2.16e-11 0 2.06859e-35
4001 1 0.000635 0.00782597 0.000635 -0.015012 0 -3.38813e-21 2.16e-11 0 0
4086 1 0.000635 0.00892582 0 -0.015012 -6.77626e-21 6.77626e-21 2.16e-11 0 0
4172 1 0.000635 0.0100257 0.000635 -0.015012 1.44599e-16 -3.38813e-21 2.16e-11 0 6.33506e-35
4257 1 0.000635 0.0111255 0 -0.015012 1.36031e-07 1.18669e-18 -4.59896e-06 2.02714e-10 6.33506e-35
4342 1 0.000635 0.0122254 0.000635 -0.015012 2.04029e-06 -2.30009e-06 7.52264e-06 2.49604e-10 6.94771e-14
2454 1 0.000635 -0.0119714 0.001905 -0.015012 3.12174e-06 -3.12876e-05 8.76096e-06 4.19786e-10 8.89279e-12
2538 1 0.000635 -0.0108715 0.00127 -0.015012 -2.35992e-07 1.21503e-08 -6.056e-06 3.55307e-10 6.33506e-35
2624 1 0.000635 -0.00977167 0.001905 -0.015012 -1.44595e-16 1.19221e-17 2.16e-11 0 6.39971e-35
2709 1 0.000635 -0.00867182 0.00127 -0.015012 -8.26264e-17 0 2.16e-11 0 2.06859e-35
2795 1 0.000635 -0.00757197 0.001905 -0.015012 1.44604e-16 1.19221e-17 2.16e-11 0 3.29682e-35
2880 1 0.000635 -0.00647211 0.00127 -0.015012 -1.44605e-16 0 2.16e-11 0 3.23218e-35
2966 1 0.000635 -0.00537226 0.001905 -0.015012 1.44604e-16 1.19238e-17 2.16e-11 0 3.29682e-35
3052 1 0.000635 -0.00427241 0.00127 -0.015012 -1.0328e-16 0 2.16e-11 0 1.68073e-35
3139 1 0.000635 -0.00317256 0.001905 -0.015012 4.13115e-17 1.19229e-17 2.16e-11 0 5.81792e-36
3225 1 0.000635 -0.0020727 0.00127 -0.015012 0 0 2.16e-11 0 0
3312 1 0.000635 -0.000972852 0.001905 -0.015012 0 1.19212e-17 2.16e-11 0 6.46435e-37
3398 1 0.000635 0.000127 0.00127 -0.015012 0 0 2.16e-11 0 0
3485 1 0.000635 0.00122685 0.001905 -0.015012 0 1.19212e-17 2.16e-11 0 6.46435e-37
3571 1 0.000635 0.0023267 0.00127 -0.015012 -6.77626e-21 0 2.16e-11 0 0
3658 1 0.000635 0.00342656 0.001905 -0.015012 2.06591e-17 1.19221e-17 2.16e-11 0 1.93931e-36
3744 1 0.000635 0.00452641 0.00127 -0.015012 4.13115e-17 0 2.16e-11 0 1.29287e-35
3831 1 0.000635 0.00562626 0.001905 -0.015012 -1.44597e-16 1.19221e-17 2.16e-11 0 3.29682e-35
3916 1 0.000635 0.00672611 0.00127 -0.015012 8.26331e-17 0 2.16e-11 0 2.06859e-35
4002 1 0.000635 0.00782597 0.001905 -0.015012 -3.38813e-21 1.19221e-17 2.16e-11 0 6.46435e-37
4087 1 0.000635 0.00892582 0.00127 -0.015012 -6.77626e-21 0 2.16e-11 0 0
4173 1 0.000635 0.0100257 0.001905 -0.015012 1.44599e-16 1.19212e-17 2.16e-11 0 6.39971e-35
4258 1 0.000635 0.0111255 0.00127 -0.015012 1.34498e-07 3.32414e-09 -4.59188e-06 2.02073e-10 6.33506e-35
4343 1 0.000635 0.0122254 0.001905 -0.015012 1.04322e-05 -4.91714e-06 9.96244e-06 2.39072e-10 6.1315e-13
2455 1 0.000635 -0.0119714 0.003175 -0.015012 3.2859e-05 -6.42731e-05 -1.86867e-06 4.33504e-10 4.09649e-11
2539 1 0.000635 -0.0108715 0.00254 -0.015012 -2.37466e-07 1.49888e-08 -6.08886e-06 3.5926e-10 6.33506e-35
2625 1 0.000635 -0.00977167 0.003175 -0.015012 -1.3427e-16 -4.1748e-17 2.16e-11 5.26426e-25 5.81792e-35
2710 1 0.000635 -0.00867182 0.00254 -0.015012 -7.2301e-17 5.97417e-18 2.16e-11 0 1.61609e-35
2796 1 0.000635 -0.00757197 0.003175 -0.015012 1.44602e-16 -4.77053e-17 2.16e-11 5.26426e-25 3.55539e-35
2881 1 0.000635 -0.00647211 0.00254 -0.015012 -1.44605e-16 1.19365e-17 2.16e-11 0 3.23218e-35
2967 1 0.000635 -0.00537226 0.003175 -0.015012 1.44604e-16 -4.7707e-17 2.16e-11 0 3.55539e-35
3053 1 0.000635 -0.00427241 0.00254 -0.015012 -1.03284e-16 1.19373e-17 2.16e-11 5.26426e-25 1.93931e-35
3140 1 0.000635 -0.00317256 0.003175 -0.015012 3.09963e-17 -4.17472e-17 2.16e-11 1.05285e-24 6.46435e-36
3226 1 0.000635 -0.0020727 0.00254 -0.015012 0 1.43996e-20 2.16e-11 0 0
3313 1 0.000635 -0.000972852 0.003175 -0.015012 0 -3.57823e-17 2.16e-11 1.05285e-24 3.23218e-36
3399 1 0.000635 0.000127 0.00254 -0.015012 0 1.35525e-20 2.16e-11 0 0
3486 1 0.000635 0.00122685 0.003175 -0.015012 0 -3.57823e-17 2.16e-11 1.05285e-24 3.23218e-36
3572 1 0.000635 0.0023267 0.00254 -0.015012 -6.77626e-21 1.35525e-20 2.16e-11 0 0
3659 1 0.000635 0.00342656 0.003175 -0.015012 3.09777e-17 -4.17463e-17 2.16e-11 1.05285e-24 6.46435e-36
3745 1 0.000635 0.00452641 0.00254 -0.015012 4.13115e-17 1.19382e-17 2.16e-11 5.26426e-25 1.93931e-35
3832 1 0.000635 0.00562626 0.003175 -0.015012 -1.44595e-16 -4.77053e-17 2.16e-11 5.26426e-25 3.55539e-35
3917 1 0.000635 0.00672611 0.00254 -0.015012 7.23095e-17 5.97502e-18 2.16e-11 0 1.61609e-35
4003 1 0.000635 0.00782597 0.003175 -0.015012 0 -3.57823e-17 2.16e-11 1.05285e-24 3.23218e-36
4088 1 0.000635 0.00892582 0.00254 -0.015012 -8.47033e-21 1.27055e-20 2.16e-11 0 0
4174 1 0.000635 0.0100257 0.003175 -0.015012 1.3427e-16 -4.1748e-17 2.16e-11 5.26426e-25 5.81792e-35
4259 1 0.000635 0.0111255 0.00254 -0.015012 1.21083e-07 3.17557e-08 -4.43885e-06 1.88873e-10 6.33506e-35
4344 1 0.000635 0.0122254 0.003175 -0.015012 4.93974e-05 -5.05751e-06 1.78179e-05 2.45483e-10 8.16209e-12
2456 1 0.000635 -0.0119714 0.004445 -0.015012 -0.000165282 0.000118045 6.36733e-05 3.88145e-10 1.3433e-10
2540 1 0.000635 -0.0108715 0.00381 -0.015012 -1.90511e-07 1.03402e-07 -5.77535e-06 3.22804e-10 4.65433e-35
2626 1 0.000635 -0.00977167 0.004445 -0.015012 -4.11985e-09 -7.13578e-09 -4.12659e-07 3.22075e-12 6.01185e-35
2711 1 0.000635 -0.00867182 0.00381 -0.015012 -8.2623e-17 0 2.16e-11 1.05285e-24 2.06859e-35
2797 1 0.000635 -0.00757197 0.004445 -0.015012 1.44602e-16 5.96282e-17 2.16e-11 5.26426e-25 3.74932e-35
2882 1 0.000635 -0.00647211 0.00381 -0.015012 -1.44605e-16 0 2.16e-11 0 3.23218e-35
2968 1 0.000635 -0.00537226 0.004445 -0.015012 1.44604e-16 5.9629e-17 2.16e-11 5.26426e-25 3.74932e-35
3054 1 0.000635 -0.00427241 0.00381 -0.015012 -1.03291e-16 0 2.16e-11 0 1.68073e-35
3141 1 0.000635 -0.00317256 0.004445 -0.015012 3.09963e-17 5.36693e-17 2.16e-11 1.57928e-24 8.40366e-36
3227 1 0.000635 -0.0020727 0.00381 -0.015012 -6.77626e-21 0 2.16e-11 2.10571e-24 0
3314 1 0.000635 -0.000972852 0.004445 -0.015012 0 4.77053e-17 2.16e-11 1.05285e-24 5.17148e-36
3400 1 0.000635 0.000127 0.00381 -0.015012 0 0 2.16e-11 1.05285e-24 0
3487 1 0.000635 0.00122685 0.004445 -0.015012 0 4.77053e-17 2.16e-11 1.05285e-24 5.17148e-36
3573 1 0.000635 0.0023267 0.00381 -0.015012 0 0 2.16e-11 2.10571e-24 0
3660 1 0.000635 0.00342656 0.004445 -0.015012 3.09811e-17 5.36701e-17 2.16e-11 1.05285e-24 8.40366e-36
3746 1 0.000635 0.00452641 0.00381 -0.015012 4.13217e-17 0 2.16e-11 0 1.29287e-35
3833 1 0.000635 0.00562626 0.004445 -0.015012 -1.44597e-16 5.9629e-17 2.16e-11 5.26426e-25 3.74932e-35
3918 1 0.000635 0.00672611 0.00381 -0.015012 8.26298e-17 0 2.16e-11 1.05285e-24 2.06859e-35
4004 1 0.000635 0.00782597 0.004445 -0.015012 -3.38813e-21 4.77061e-17 2.16e-11 1.05285e-24 5.17148e-36
4089 1 0.000635 0.00892582 0.00381 -0.015012 -6.77626e-21 0 2.16e-11 1.05285e-24 0
4175 1 0.000635 0.0100257 0.004445 -0.015012 1.88463e-08 -3.26428e-08 -5.37853e-07 5.49728e-12 6.01185e-35
4260 1 0.000635 0.0111255 0.00381 -0.015012 1.23909e-07 3.0723e-08 -4.54724e-06 1.98075e-10 4.65433e-35
4345 1 0.000635 0.0122254 0.004445 -0.015012 0.000137486 0.000196977 3.89863e-05 2.36239e-09 2.77101e-10
2541 1 0.000635 -0.0108715 0.00508 -0.015012 -1.74532e-05 1.02241e-05 -3.68872e-06 2.49412e-10 1.80987e-12
2712 1 0.000635 -0.00867182 0.00508 -0.015012 -6.19774e-17 2.3845e-17 2.16e-11 0 1.42216e-35
2883 1 0.000635 -0.00647211 0.00508 -0.015012 -1.44605e-16 2.38442e-17 2.16e-11 0 3.49075e-35
3055 1 0.000635 -0.00427241 0.00508 -0.015012 -1.03287e-16 2.38433e-17 2.16e-11 1.57928e-24 2.45645e-35
3228 1 0.000635 -0.0020727 0.00508 -0.015012 -3.38813e-21 2.38442e-17 2.16e-11 0 2.58574e-36
3401 1 0.000635 0.000127 0.00508 -0.015012 0 2.38442e-17 2.16e-11 0 2.58574e-36
3574 1 0.000635 0.0023267 0.00508 -0.015012 -3.38813e-21 2.38459e-17 2.16e-11 0 2.58574e-36
3747 1 0.000635 0.00452641 0.00508 -0.015012 4.13081e-17 2.38433e-17 2.16e-11 5.26426e-25 2.84431e-35
3919 1 0.000635 0.00672611 0.00508 -0.015012 6.19859e-17 2.38442e-17 2.16e-11 0 1.42216e-35
4090 1 0.000635 0.00892582 0.00508 -0.015012 -8.47033e-21 2.3845e-17 2.16e-11 0 2.58574e-36
4261 1 0.000635 0.0111255 0.00508 -0.015012 -4.65121e-05 -2.65436e-05 -1.16116e-05 1.04137e-09 1.32926e-11
2457 1 0.000635 -0.0119705 0.00571556 -0.0149652 -1.37595e-11 1.11411e-10 -1.5159e-09 2.96184e-10 1.03643e-10
2542 1 0.000635 -0.0108715 0.00635 -0.015012 -6.39593e-05 7.48014e-05 7.61961e-06 1.29954e-10 3.64855e-11
2627 1 0.000635 -0.00977167 0.005715 -0.015012 -3.41701e-09 -5.91843e-09 -9.67746e-07 1.77331e-11 6.85221e-35
2713 1 0.000635 -0.00867182 0.00635 -0.015012 -1.55052e-10 -2.68558e-10 -3.88144e-07 2.84821e-12 2.9736e-35
2798 1 0.000635 -0.00757197 0.005715 -0.015012 1.44602e-16 -4.76832e-17 2.16e-11 0 3.74932e-35
2884 1 0.000635 -0.00647211 0.00635 -0.015012 -1.44609e-16 -7.15816e-17 2.16e-11 0 4.0079e-35
2969 1 0.000635 -0.00537226 0.005715 -0.015012 1.44604e-16 -4.76841e-17 2.16e-11 5.26426e-25 3.74932e-35
3056 1 0.000635 -0.00427241 0.00635 -0.015012 -1.13621e-16 -7.75431e-17 2.16e-11 0 2.90896e-35
3142 1 0.000635 -0.00317256 0.005715 -0.015012 2.0671e-17 -4.76858e-17 2.16e-11 5.26426e-25 6.46435e-36
3229 1 0.000635 -0.0020727 0.00635 -0.015012 -5.0822e-21 -7.15842e-17 2.16e-11 0 1.0343e-35
3315 1 0.000635 -0.000972852 0.005715 -0.015012 0 -4.76866e-17 2.16e-11 0 5.17148e-36
3402 1 0.000635 0.000127 0.00635 -0.015012 0 -7.1585e-17 2.16e-11 0 1.0343e-35