ITEM: TIMESTEP
400000
ITEM: NUMBER OF ATOMS
6793
ITEM: BOX BOUNDS ff ff ff
-8.9999999999999997e-02 8.9999999999999997e-02
-8.9999999999999997e-02 8.9999999999999997e-02
-4.0000000000000001e-02 4.0000000000000001e-02
ITEM: ATOMS id type radius x y z fx fy fz c_bendingE c_stretchingE
3469 1 0.000635 0.00120855 -0.0183652 -0.00358088 3.27953e-10 4.33509e-10 2.33719e-09 1.87327e-10 1.9473e-11
3642 1 0.000635 0.00340599 -0.0183675 -0.0035184 2.04744e-12 3.45212e-10 2.6059e-09 1.75382e-11 1.69182e-11
3555 1 0.000635 0.00230411 -0.0189963 -0.00346451 2.77993e-10 -3.93747e-10 -1.85177e-09 6.54936e-11 1.64584e-11
3383 1 0.000635 0.000118441 -0.017715 -0.0035985 2.41869e-10 1.08216e-10 5.883e-10 2.38274e-10 2.49188e-11
3470 1 0.000635 0.00121649 -0.0171178 -0.00382362 -1.8235e-11 2.23053e-10 1.1395e-09 1.77029e-10 3.43945e-11
3556 1 0.000635 0.00231177 -0.0177445 -0.00368351 1.35326e-10 9.40986e-11 4.9484e-10 6.60009e-11 2.81847e-11
3643 1 0.000635 0.00341178 -0.0171108 -0.0037072 2.51888e-11 1.03448e-10 8.60953e-10 1.16604e-11 2.28269e-11
3729 1 0.000635 0.00450592 -0.0177335 -0.00353956 1.17084e-10 -6.18071e-11 3.04985e-10 2.61702e-12 1.4745e-11
3816 1 0.000635 0.00560623 -0.0171006 -0.00356624 3.35165e-10 -6.81768e-10 -3.67123e-09 1.06773e-12 1.38033e-11
3987 1 0.000635 0.0078025 -0.0170945 -0.00345233 1.15654e-10 4.79858e-11 1.45374e-09 2.31875e-11 1.41557e-11
3384 1 0.000635 0.000121472 -0.0164789 -0.00388708 -8.61427e-10 -1.28186e-09 -5.89189e-09 2.85073e-10 3.01519e-11
3557 1 0.000635 0.00231789 -0.0164882 -0.00387637 2.66767e-11 -1.70983e-10 -1.16746e-09 5.6517e-11 3.91084e-11
3730 1 0.000635 0.00451103 -0.0164755 -0.00371867 -5.63007e-11 1.54994e-10 1.83751e-09 1.46049e-12 1.74553e-11
3902 1 0.000635 0.00670734 -0.0164698 -0.00360726 1.91784e-10 -2.65497e-10 -7.10493e-10 7.004e-12 1.52967e-11
4073 1 0.000635 0.00890049 -0.0164571 -0.00344857 1.06017e-10 1.27101e-10 1.90034e-09 5.86965e-11 9.74619e-12
3212 1 0.000635 -0.00201898 -0.0151325 -0.00368056 1.2484e-09 1.52235e-09 2.6442e-09 4.91294e-10 4.6829e-11
3298 1 0.000635 -0.000957089 -0.0158151 -0.00380824 -3.53547e-10 -3.47845e-10 -2.88298e-09 4.38602e-10 6.62507e-11
3385 1 0.000635 0.000125589 -0.0152317 -0.00412506 -3.18728e-10 -6.77447e-10 -3.78841e-09 2.37298e-10 1.57713e-11
3471 1 0.000635 0.00122292 -0.0158632 -0.00402821 -3.45918e-10 -8.41511e-11 3.49856e-10 2.42792e-10 3.97397e-11
3558 1 0.000635 0.00232204 -0.0152278 -0.00404202 -1.43936e-10 -1.70015e-10 -7.50428e-10 3.17936e-11 4.778e-11
3644 1 0.000635 0.00341647 -0.0158517 -0.00388026 1.62974e-10 -4.31786e-10 -2.84832e-09 5.95935e-12 2.78781e-11
3731 1 0.000635 0.00451568 -0.0152165 -0.00389043 -1.16344e-10 1.32556e-10 1.92394e-09 1.42117e-12 1.91486e-11
3817 1 0.000635 0.00561141 -0.0158428 -0.00374661 1.85018e-10 -4.92599e-10 -2.39475e-09 1.61504e-12 1.49648e-11
3903 1 0.000635 0.00671263 -0.0152124 -0.00379018 3.67729e-11 8.67655e-12 1.25198e-09 9.4566e-12 1.63036e-11
3988 1 0.000635 0.00780829 -0.0158386 -0.00364483 1.36689e-10 -1.95755e-11 9.92995e-10 3.73041e-11 1.8598e-11
4074 1 0.000635 0.00890588 -0.0152007 -0.00363549 3.48424e-10 -2.52946e-10 -4.84912e-10 8.56073e-11 1.26021e-11
3040 1 0.000635 -0.00423941 -0.0139086 -0.00380448 3.51516e-10 6.72405e-10 1.51778e-09 1.67987e-10 8.92379e-12
3126 1 0.000635 -0.00313315 -0.0145304 -0.00376409 6.09302e-10 8.06113e-10 1.97235e-09 3.20408e-10 2.06275e-11
3213 1 0.000635 -0.00206994 -0.0139592 -0.00416127 -1.09778e-10 -9.25437e-11 -9.91207e-10 3.44959e-10 6.79165e-11
3299 1 0.000635 -0.000972263 -0.0145958 -0.00415963 -5.43963e-10 -8.78405e-10 -4.90114e-09 3.39021e-10 4.39747e-11
3386 1 0.000635 0.00012713 -0.0139692 -0.00426512 -1.96786e-10 -1.94208e-10 -8.64617e-11 2.7052e-10 1.00957e-11
3472 1 0.000635 0.00122596 -0.0146011 -0.00417923 -1.33591e-10 -4.36514e-10 -2.68474e-09 1.30249e-10 3.40803e-11
3559 1 0.000635 0.00232505 -0.0139651 -0.0041894 -1.11312e-10 -1.04656e-10 -1.21959e-10 3.79872e-11 7.45012e-11
3732 1 0.000635 0.00451999 -0.0139567 -0.00405609 -2.27748e-10 3.23574e-10 3.59451e-09 3.93112e-12 2.02356e-11
3645 1 0.000635 0.00342047 -0.0145912 -0.00404259 -1.42106e-10 1.61979e-11 8.99249e-10 6.68475e-12 3.28206e-11
3818 1 0.000635 0.00561625 -0.0145842 -0.00392063 5.06541e-12 -1.67452e-10 -6.85139e-11 2.22333e-12 1.43332e-11
3904 1 0.000635 0.00671745 -0.0139535 -0.00396236 -1.40031e-11 -1.07944e-10 4.26742e-10 1.12584e-11 1.42797e-11
3989 1 0.000635 0.00781362 -0.0145813 -0.00382827 -5.97684e-12 8.44502e-11 1.89726e-09 5.62291e-11 2.18848e-11
4075 1 0.000635 0.00891102 -0.0139431 -0.00381447 -9.17437e-12 1.17368e-12 1.0167e-09 1.10871e-10 1.36751e-11
4160 1 0.000635 0.00998583 -0.0145461 -0.00350605 5.9288e-11 -3.05098e-11 7.91132e-10 9.71907e-11 2.82012e-11
2698 1 0.000635 -0.00860696 -0.0125809 -0.00345281 4.89237e-10 1.30634e-09 2.8396e-09 5.86488e-11 1.84264e-12
2869 1 0.000635 -0.00644393 -0.0126488 -0.0038449 4.9636e-10 9.56697e-10 3.25539e-09 1.35702e-10 2.8859e-12
2954 1 0.000635 -0.00534224 -0.0132798 -0.00382703 1.78114e-10 2.16092e-10 6.19213e-10 1.44615e-10 3.77595e-12
3041 1 0.000635 -0.00426703 -0.0126888 -0.0041556 -4.23135e-10 -7.00012e-10 -3.85323e-09 2.30052e-10 2.21553e-11
3127 1 0.000635 -0.00316787 -0.0133233 -0.00415545 1.8391e-10 3.55462e-10 1.18568e-09 2.64883e-10 5.89747e-11
3214 1 0.000635 -0.0020727 -0.0127 -0.00432 -4.09826e-05 2.58271e-05 1.01616e-06 2.99335e-10 1.90414e-11
3300 1 0.000635 -0.000972873 -0.0133348 -0.00430517 -4.63175e-12 -1.82099e-11 1.12477e-09 2.2017e-10 1.21521e-11
3387 1 0.000635 0.000127 -0.0127 -0.00432 1.65232e-05 -2.76891e-05 8.23156e-07 4.69021e-11 3.13784e-12
3473 1 0.000635 0.00122684 -0.0133346 -0.00428312 -1.10724e-10 -4.03859e-11 1.07438e-09 3.67314e-11 1.21045e-11
3560 1 0.000635 0.0023267 -0.0127 -0.00432 3.02943e-05 -0.000134531 2.10351e-05 5.11215e-11 5.94469e-11
3646 1 0.000635 0.00342384 -0.0133295 -0.00419568 -8.1842e-11 4.42562e-12 6.73298e-10 4.73622e-11 4.21163e-11
3733 1 0.000635 0.00452394 -0.0126955 -0.00420901 -2.02804e-10 3.355e-10 3.80934e-09 3.95375e-11 1.06281e-11
3819 1 0.000635 0.00562067 -0.0133243 -0.00408401 -7.62639e-11 2.9168e-11 1.23904e-09 5.04416e-12 9.81506e-12
3905 1 0.000635 0.00672159 -0.0126924 -0.00411703 -1.65486e-10 2.87639e-10 3.39689e-09 1.3738e-11 1.05336e-11
3990 1 0.000635 0.00781832 -0.0133218 -0.00399738 -9.60266e-11 8.61289e-12 1.22144e-09 6.83481e-11 2.17919e-11
4076 1 0.000635 0.00891603 -0.012684 -0.00398272 -3.11634e-10 1.89576e-10 2.28558e-09 1.25883e-10 9.22062e-12
4161 1 0.000635 0.00998514 -0.0132859 -0.00365451 -3.5486e-10 1.94936e-10 2.26265e-09 1.27828e-10 6.16476e-11
2613 1 0.000635 -0.00970801 -0.0119487 -0.00347067 5.14111e-10 1.45183e-09 2.8139e-09 6.81253e-11 4.13533e-12
2784 1 0.000635 -0.00754525 -0.0120173 -0.00386246 -2.053e-10 -2.08544e-10 -9.19635e-10 1.37588e-10 5.37345e-12
2870 1 0.000635 -0.00646671 -0.0114208 -0.00416805 1.76022e-10 3.92287e-10 1.92389e-09 1.91171e-10 5.66159e-12
2955 1 0.000635 -0.00536672 -0.0120546 -0.00416019 1.1015e-10 2.32233e-10 1.00614e-09 2.04228e-10 8.72381e-12
3042 1 0.000635 -0.00427241 -0.01143 -0.00432 -6.06509e-06 2.64352e-05 -3.92826e-07 1.69268e-10 4.3307e-12
3128 1 0.000635 -0.00317256 -0.012065 -0.00432 -2.02407e-05 4.20592e-05 -1.8499e-06 2.0294e-10 1.56555e-11
3215 1 0.000635 -0.0020727 -0.01143 -0.00432 6.64864e-09 -5.38499e-08 -2.85028e-06 7.71853e-11 5.17148e-36
3301 1 0.000635 -0.000972852 -0.012065 -0.00432 2.70705e-08 7.796e-06 -2.76015e-06 6.75768e-11 2.81604e-13
3388 1 0.000635 0.000127 -0.01143 -0.00432 -1.14704e-09 -1.69407e-21 -4.83881e-07 4.4272e-12 5.17148e-36
3474 1 0.000635 0.00122685 -0.012065 -0.00432 -6.59411e-09 -8.24216e-06 -9.28457e-07 3.16871e-11 3.0644e-13
3561 1 0.000635 0.0023267 -0.01143 -0.00432 2.86337e-09 -2.03343e-08 -2.12863e-06 4.32081e-11 5.17148e-36
3647 1 0.000635 0.00342656 -0.012065 -0.00432 2.2382e-05 -4.49076e-05 8.87275e-06 4.44192e-11 7.82689e-12
3734 1 0.000635 0.00452641 -0.01143 -0.00432 1.12383e-05 -2.61862e-05 5.84165e-06 3.42247e-11 2.57145e-12
3820 1 0.000635 0.00562429 -0.0120618 -0.00422531 1.98476e-12 -9.93253e-11 -5.68725e-10 3.08256e-11 5.53173e-12
3906 1 0.000635 0.00672464 -0.0114281 -0.00424296 -3.44133e-11 4.46713e-11 6.01833e-10 2.96434e-11 7.21184e-12
3991 1 0.000635 0.00782221 -0.0120596 -0.00414557 -1.23164e-10 1.25207e-10 1.53872e-09 7.50624e-11 1.84405e-11
4077 1 0.000635 0.00892105 -0.011423 -0.00413767 1.03682e-10 -1.29225e-10 -9.40227e-10 1.43174e-10 7.51262e-12
4162 1 0.000635 0.00999185 -0.0120289 -0.00382388 -7.07968e-10 3.96654e-10 3.0037e-09 1.62887e-10 7.58899e-11
2444 1 0.000635 -0.0119053 -0.0106764 -0.00348904 1.09956e-09 2.67142e-09 5.48399e-09 1.78215e-10 1.31746e-11
2528 1 0.000635 -0.0108078 -0.0113145 -0.00348406 4.81999e-10 1.31393e-09 2.47858e-09 9.03639e-11 7.24543e-12
2614 1 0.000635 -0.00974725 -0.010754 -0.00390029 -5.57668e-10 -9.32413e-10 -4.05893e-09 1.6894e-10 3.06706e-11
2699 1 0.000635 -0.00864635 -0.0113856 -0.0038808 3.12361e-10 8.77607e-10 1.67154e-09 1.49163e-10 1.31014e-11
2785 1 0.000635 -0.00756686 -0.0107872 -0.00417834 -2.95446e-11 -7.31184e-11 -8.25588e-10 1.86181e-10 8.92044e-12
2956 1 0.000635 -0.00537226 -0.010795 -0.00432 6.10417e-06 1.74228e-05 -6.08653e-08 1.54669e-10 1.13455e-12
3129 1 0.000635 -0.00317256 -0.010795 -0.00432 -1.40549e-08 -4.73735e-08 -2.86166e-06 7.78043e-11 6.46435e-36
3302 1 0.000635 -0.000972852 -0.010795 -0.00432 1.82492e-10 0 -1.30765e-07 3.23259e-13 5.17148e-36
3475 1 0.000635 0.00122685 -0.010795 -0.00432 6.59072e-11 -1.69407e-21 -3.25223e-07 1.99949e-12 5.17148e-36
3648 1 0.000635 0.00342656 -0.010795 -0.00432 1.61339e-08 -1.34988e-08 -1.93085e-06 3.59596e-11 1.0343e-35
3821 1 0.000635 0.00562626 -0.010795 -0.00432 5.56364e-06 -2.27263e-05 4.28873e-06 2.57643e-11 1.93679e-12
3992 1 0.000635 0.00782492 -0.0107941 -0.00426102 6.31813e-11 -7.51795e-12 -2.01048e-10 8.37332e-11 1.3462e-11
4163 1 0.000635 0.0100079 -0.0107761 -0.00402258 2.97084e-10 -2.88097e-10 -1.52611e-09 1.79627e-10 5.121e-11
4248 1 0.000635 0.0110308 -0.0113561 -0.0035421 -1.32742e-09 7.24218e-10 4.11846e-09 1.47204e-10 3.73657e-11
2110 1 0.000635 -0.0163047 -0.00951049 -0.00353928 7.61881e-11 2.08881e-10 1.31798e-09 2.34047e-10 2.52218e-11
2276 1 0.000635 -0.0141094 -0.0094223 -0.00355554 -2.13986e-10 1.50466e-10 -1.44449e-09 6.99812e-10 3.66927e-11
2360 1 0.000635 -0.012998 -0.0100305 -0.00347837 1.86478e-10 1.29351e-09 1.61687e-09 3.83408e-10 2.57414e-11
2445 1 0.000635 -0.0119505 -0.00949636 -0.00395662 -3.02309e-10 -2.73852e-10 -1.99462e-09 2.6202e-10 8.29366e-11
2529 1 0.000635 -0.0108484 -0.0101236 -0.0039239 3.72165e-10 1.08223e-09 2.33957e-09 1.94576e-10 5.91882e-11
2615 1 0.000635 -0.00976727 -0.00952012 -0.00420284 8.22436e-11 1.96314e-10 5.08528e-10 1.9965e-10 3.10118e-11
2700 1 0.000635 -0.00866708 -0.0101537 -0.0041904 -4.9084e-10 -7.95091e-10 -5.33737e-09 1.87826e-10 1.80292e-11
2786 1 0.000635 -0.00757197 -0.009525 -0.00432 2.90948e-05 7.84383e-06 -6.66853e-07 1.40367e-10 5.52029e-12
2871 1 0.000635 -0.00647211 -0.01016 -0.00432 1.76483e-05 1.19664e-05 -2.67461e-07 1.46158e-10 1.93058e-12
2957 1 0.000635 -0.00537226 -0.009525 -0.00432 -3.04798e-08 -3.1944e-08 -2.65938e-06 6.73815e-11 3.74932e-35
3043 1 0.000635 -0.00427241 -0.01016 -0.00432 -2.43468e-08 -4.00181e-08 -2.79071e-06 7.4078e-11 2.71503e-35
3130 1 0.000635 -0.00317256 -0.009525 -0.00432 2.0671e-17 0 2.16e-11 1.05285e-24 6.46435e-36
3216 1 0.000635 -0.0020727 -0.01016 -0.00432 -6.77626e-21 0 2.16e-11 0 5.17148e-36
3303 1 0.000635 -0.000972852 -0.009525 -0.00432 0 0 2.16e-11 0 5.17148e-36
3389 1 0.000635 0.000127 -0.01016 -0.00432 0 0 2.16e-11 0 5.17148e-36
3476 1 0.000635 0.00122685 -0.009525 -0.00432 0 0 2.16e-11 0 5.17148e-36
3562 1 0.000635 0.0023267 -0.01016 -0.00432 0 0 2.16e-11 0 5.17148e-36
3649 1 0.000635 0.00342656 -0.009525 -0.00432 4.13115e-17 0 2.16e-11 0 1.0343e-35
3735 1 0.000635 0.00452641 -0.01016 -0.00432 1.77993e-08 -6.83271e-09 -1.65791e-06 2.68709e-11 3.10289e-35
3822 1 0.000635 0.00562626 -0.009525 -0.00432 1.63386e-08 -1.80508e-09 -1.35503e-06 1.83123e-11 3.74932e-35
3907 1 0.000635 0.00672611 -0.01016 -0.00432 9.43985e-07 -2.54914e-05 2.96356e-06 2.35224e-11 2.83734e-12
3993 1 0.000635 0.00782597 -0.009525 -0.00432 -6.75638e-06 -2.31345e-05 8.40777e-07 6.43657e-11 3.58956e-12
4078 1 0.000635 0.00892487 -0.0101588 -0.00426247 4.49549e-10 -4.91989e-10 -5.53094e-09 1.76181e-10 1.30494e-11
4164 1 0.000635 0.0100215 -0.00951977 -0.00420239 -7.39873e-10 4.77246e-10 4.55753e-09 1.95429e-10 2.41511e-11
4249 1 0.000635 0.0110742 -0.0101185 -0.00381933 -7.46166e-10 3.70727e-10 3.08686e-09 1.63114e-10 4.68626e-11
4334 1 0.000635 0.0121378 -0.0094587 -0.00360936 6.29272e-10 -4.90261e-10 -1.68309e-09 6.94247e-11 3.07583e-11
2028 1 0.000635 -0.0174097 -0.00888812 -0.0034852 -6.07438e-10 -5.52099e-10 -3.21327e-09 1.75985e-10 2.25527e-11
2111 1 0.000635 -0.0163342 -0.00825354 -0.00372076 4.97571e-10 8.3986e-12 2.68562e-09 2.7752e-10 3.04123e-11
2193 1 0.000635 -0.0152326 -0.00888024 -0.00379235 -3.7181e-10 -9.80637e-10 -4.09152e-09 4.06079e-10 2.72442e-11
2277 1 0.000635 -0.0141595 -0.00825154 -0.00404537 -3.26457e-10 -4.33252e-10 -2.94743e-09 3.81419e-10 4.2136e-11
2361 1 0.000635 -0.0130543 -0.00887289 -0.00399787 -3.27873e-10 -4.65595e-10 -2.67361e-09 4.71913e-10 7.4787e-11
2446 1 0.000635 -0.0119684 -0.00825322 -0.00421738 -3.34042e-10 -4.63365e-10 -3.55262e-09 2.5861e-10 8.53061e-12
2530 1 0.000635 -0.0108677 -0.00888679 -0.0042144 -2.54233e-10 -2.76436e-10 -2.86574e-09 2.39313e-10 2.23266e-11
2616 1 0.000635 -0.00977167 -0.008255 -0.00432 2.34846e-05 -1.36683e-05 1.29155e-06 1.24624e-10 8.11769e-12
2701 1 0.000635 -0.00867182 -0.00889 -0.00432 3.92088e-05 3.2457e-06 -1.02966e-06 1.34582e-10 1.10466e-11
2787 1 0.000635 -0.00757197 -0.008255 -0.00432 -3.60598e-08 -1.54952e-08 -2.28313e-06 4.98721e-11 4.0079e-35
2872 1 0.000635 -0.00647211 -0.00889 -0.00432 -3.41044e-08 -2.3489e-08 -2.48361e-06 5.8894e-11 3.74932e-35
2958 1 0.000635 -0.00537226 -0.008255 -0.00432 1.44607e-16 -7.15799e-17 2.16e-11 5.26426e-25 4.0079e-35
3044 1 0.000635 -0.00427241 -0.00889 -0.00432 -1.03289e-16 -4.76841e-17 2.16e-11 1.05285e-24 2.71503e-35
3131 1 0.000635 -0.00317256 -0.008255 -0.00432 3.09912e-17 -7.75431e-17 2.16e-11 5.26426e-25 1.87466e-35
3217 1 0.000635 -0.0020727 -0.00889 -0.00432 -3.38813e-21 -4.76866e-17 2.16e-11 0 5.17148e-36
3304 1 0.000635 -0.000972852 -0.008255 -0.00432 0 -7.15833e-17 2.16e-11 0 1.0343e-35
3390 1 0.000635 0.000127 -0.00889 -0.00432 0 -4.76866e-17 2.16e-11 0 5.17148e-36
3477 1 0.000635 0.00122685 -0.008255 -0.00432 0 -7.15833e-17 2.16e-11 0 1.0343e-35
3563 1 0.000635 0.0023267 -0.00889 -0.00432 0 -4.76858e-17 2.16e-11 0 5.17148e-36
3650 1 0.000635 0.00342656 -0.008255 -0.00432 4.13098e-17 -7.15825e-17 2.16e-11 0 1.0343e-35
3736 1 0.000635 0.00452641 -0.00889 -0.00432 4.13115e-17 -4.76841e-17 2.16e-11 0 3.10289e-35
3823 1 0.000635 0.00562626 -0.008255 -0.00432 -1.446e-16 -7.15791e-17 2.16e-11 0 4.0079e-35
3908 1 0.000635 0.00672611 -0.00889 -0.00432 1.03317e-08 -4.63654e-09 -1.18658e-06 1.35972e-11 1.68073e-35
3994 1 0.000635 0.00782597 -0.008255 -0.00432 -1.55198e-09 -1.87292e-08 -1.55785e-06 2.55232e-11 1.0343e-35
4079 1 0.000635 0.00892582 -0.00889 -0.00432 -3.59355e-05 1.75966e-05 -4.22067e-06 1.46887e-10 7.97357e-12
4165 1 0.000635 0.0100257 -0.008255 -0.00432 6.71444e-05 1.12433e-05 1.299e-05 1.94761e-10 1.95924e-11
4250 1 0.000635 0.0111047 -0.00887288 -0.00406026 -1.80361e-10 1.19422e-10 8.78814e-10 2.02972e-10 2.80611e-11
4335 1 0.000635 0.012183 -0.00822301 -0.0038963 4.74716e-11 -9.57673e-11 -1.12293e-09 1.7334e-10 1.89758e-11
2029 1 0.000635 -0.017419 -0.00761913 -0.00353909 7.36266e-10 -1.52268e-10 4.17951e-09 6.01386e-11 2.05128e-11
2112 1 0.000635 -0.0163369 -0.00698363 -0.00374036 6.46953e-10 -1.7296e-10 3.30091e-09 5.52485e-11 2.70527e-11
2194 1 0.000635 -0.0152537 -0.00761807 -0.00393097 -2.99054e-10 -4.52119e-10 -2.31513e-09 2.26099e-10 4.47199e-11
2278 1 0.000635 -0.0141645 -0.00698323 -0.00409481 -1.02626e-10 -3.01089e-10 -9.42835e-10 3.38118e-10 4.91232e-11
2362 1 0.000635 -0.0130687 -0.00761862 -0.00419505 -2.35569e-10 -3.26214e-10 -2.42528e-09 2.63783e-10 1.21642e-11
2447 1 0.000635 -0.0119711 -0.00698473 -0.00427862 -4.94178e-11 -1.68931e-10 -6.4489e-11 8.52643e-11 5.88713e-12
2531 1 0.000635 -0.0108715 -0.00761997 -0.00430765 -6.04317e-11 -7.02062e-11 1.61994e-10 1.0598e-10 2.68654e-12
2617 1 0.000635 -0.00977167 -0.006985 -0.00432 -7.53021e-07 -4.13004e-07 -1.73934e-06 3.05304e-11 3.04546e-15
2702 1 0.000635 -0.00867182 -0.00762 -0.00432 -3.804e-08 -6.52299e-09 -2.07437e-06 4.12066e-11 2.9736e-35
2788 1 0.000635 -0.00757197 -0.006985 -0.00432 1.44605e-16 -2.38958e-17 2.16e-11 0 4.0079e-35
2873 1 0.000635 -0.00647211 -0.00762 -0.00432 -1.44609e-16 2.38967e-17 2.16e-11 0 4.0079e-35
2959 1 0.000635 -0.00537226 -0.006985 -0.00432 1.44605e-16 -2.38958e-17 2.16e-11 0 4.0079e-35
3045 1 0.000635 -0.00427241 -0.00762 -0.00432 -1.13623e-16 2.98573e-17 2.16e-11 0 2.90896e-35
3132 1 0.000635 -0.00317256 -0.006985 -0.00432 3.09912e-17 -2.98573e-17 2.16e-11 0 1.87466e-35
3218 1 0.000635 -0.0020727 -0.00762 -0.00432 -1.69407e-21 2.38958e-17 2.16e-11 0 1.0343e-35
3305 1 0.000635 -0.000972852 -0.006985 -0.00432 0 -2.38967e-17 2.16e-11 0 1.0343e-35
3391 1 0.000635 0.000127 -0.00762 -0.00432 0 2.38967e-17 2.16e-11 0 1.0343e-35
3478 1 0.000635 0.00122685 -0.006985 -0.00432 0 -2.38967e-17 2.16e-11 0 1.0343e-35
3564 1 0.000635 0.0023267 -0.00762 -0.00432 0 2.38967e-17 2.16e-11 0 1.0343e-35
3651 1 0.000635 0.00342656 -0.006985 -0.00432 4.13081e-17 -2.38967e-17 2.16e-11 0 1.0343e-35
3737 1 0.000635 0.00452641 -0.00762 -0.00432 4.13217e-17 2.38958e-17 2.16e-11 0 2.06859e-35
3824 1 0.000635 0.00562626 -0.006985 -0.00432 -1.44599e-16 -2.3895e-17 2.16e-11 0 4.0079e-35
3909 1 0.000635 0.00672611 -0.00762 -0.00432 6.19757e-17 2.38958e-17 2.16e-11 0 2.9736e-35
3995 1 0.000635 0.00782597 -0.006985 -0.00432 -6.77626e-21 -2.38967e-17 2.16e-11 0 1.0343e-35
4080 1 0.000635 0.00892582 -0.00762 -0.00432 -1.11843e-08 -3.38602e-08 -2.79758e-06 1.05081e-10 1.0343e-35
4166 1 0.000635 0.0100257 -0.006985 -0.00432 -3.33768e-05 1.92248e-05 -4.78963e-06 1.51633e-10 6.81491e-12
4251 1 0.000635 0.0111236 -0.00761816 -0.00425015 4.60032e-10 -3.57864e-10 -3.79467e-09 2.04146e-10 3.59876e-11
4336 1 0.000635 0.0122143 -0.00697695 -0.00413777 1.3956e-09 -1.13346e-09 -7.16662e-09 2.01788e-10 1.20908e-11
4420 1 0.000635 0.0132527 -0.00756683 -0.00370506 6.14604e-10 -6.81656e-10 -2.93424e-09 1.33671e-10 1.9261e-11
4505 1 0.000635 0.0143116 -0.00690303 -0.00348388 1.29308e-09 -1.11074e-09 -3.54496e-09 1.17396e-10 2.18452e-11
2030 1 0.000635 -0.0174161 -0.00634916 -0.00352693 6.26011e-10 -1.65726e-10 3.37087e-09 8.65142e-12 1.13132e-11
2113 1 0.000635 -0.0163313 -0.00571405 -0.0037123 3.77986e-10 -1.81179e-10 1.85525e-09 5.62827e-12 1.19224e-11
2195 1 0.000635 -0.0152503 -0.00634847 -0.00391761 2.03054e-10 -3.056e-10 8.30821e-10 4.80772e-11 2.84516e-11
2279 1 0.000635 -0.0141596 -0.0057138 -0.00406848 -1.87186e-10 -1.9319e-10 -1.58507e-09 2.14056e-11 2.37169e-11
2363 1 0.000635 -0.0130689 -0.00634918 -0.00420872 -1.04925e-10 -2.05643e-10 -8.75553e-10 7.31508e-11 2.07929e-11
2448 1 0.000635 -0.0119712 -0.00571495 -0.00429224 2.92403e-11 -7.0204e-11 1.24149e-09 2.59049e-11 6.57635e-12
2532 1 0.000635 -0.0108715 -0.00635 -0.00432 -2.40629e-05 -6.11147e-06 6.32349e-07 2.16282e-11 1.95593e-12
2618 1 0.000635 -0.00977167 -0.005715 -0.00432 5.40045e-10 -9.35385e-10 -3.64865e-07 2.51676e-12 6.85221e-35
2703 1 0.000635 -0.00867182 -0.00635 -0.00432 5.7486e-11 -9.95688e-11 -1.08896e-07 2.24191e-13 2.9736e-35
2789 1 0.000635 -0.00757197 -0.005715 -0.00432 1.44602e-16 4.76832e-17 2.16e-11 0 3.74932e-35
2874 1 0.000635 -0.00647211 -0.00635 -0.00432 -1.44609e-16 7.15816e-17 2.16e-11 0 4.0079e-35
2960 1 0.000635 -0.00537226 -0.005715 -0.00432 1.44604e-16 4.76841e-17 2.16e-11 5.26426e-25 3.74932e-35
3046 1 0.000635 -0.00427241 -0.00635 -0.00432 -1.13621e-16 7.75431e-17 2.16e-11 0 2.90896e-35
3133 1 0.000635 -0.00317256 -0.005715 -0.00432 2.0671e-17 4.76858e-17 2.16e-11 5.26426e-25 6.46435e-36
3219 1 0.000635 -0.0020727 -0.00635 -0.00432 -5.0822e-21 7.15842e-17 2.16e-11 0 1.0343e-35
3306 1 0.000635 -0.000972852 -0.005715 -0.00432 0 4.76866e-17 2.16e-11 0 5.17148e-36
3392 1 0.000635 0.000127 -0.00635 -0.00432 0 7.1585e-17 2.16e-11 0 1.0343e-35
3479 1 0.000635 0.00122685 -0.005715 -0.00432 0 4.76866e-17 2.16e-11 0 5.17148e-36
3565 1 0.000635 0.0023267 -0.00635 -0.00432 0 7.15842e-17 2.16e-11 0 1.0343e-35
3652 1 0.000635 0.00342656 -0.005715 -0.00432 4.13098e-17 4.76858e-17 2.16e-11 0 1.0343e-35
3738 1 0.000635 0.00452641 -0.00635 -0.00432 4.13183e-17 7.15816e-17 2.16e-11 0 2.06859e-35
3825 1 0.000635 0.00562626 -0.005715 -0.00432 -1.44597e-16 4.76841e-17 2.16e-11 0 3.74932e-35
3910 1 0.000635 0.00672611 -0.00635 -0.00432 6.19774e-17 7.15825e-17 2.16e-11 0 2.9736e-35
3996 1 0.000635 0.00782597 -0.005715 -0.00432 -6.77626e-21 4.76849e-17 2.16e-11 0 5.17148e-36
4081 1 0.000635 0.00892582 -0.00635 -0.00432 -2.6856e-09 -4.6516e-09 -6.16335e-07 7.18512e-12 1.0343e-35
4167 1 0.000635 0.0100257 -0.005715 -0.00432 -6.2099e-09 -1.07559e-08 -1.60778e-06 4.91082e-11 6.85221e-35
4252 1 0.000635 0.0111255 -0.00635 -0.00432 -4.0148e-05 -5.01948e-07 -2.85888e-06 1.80571e-10 5.25336e-12
4337 1 0.000635 0.0122243 -0.0057149 -0.00428225 -5.14186e-10 2.84836e-10 4.81611e-09 2.09288e-10 1.34635e-11
4421 1 0.000635 0.0132947 -0.00632868 -0.00398322 -6.33471e-10 3.44241e-10 2.78478e-09 2.86046e-10 2.11688e-11
2031 1 0.000635 -0.0174108 -0.00507948 -0.00350029 1.54593e-10 -1.3671e-10 8.63973e-10 8.3216e-13 5.20086e-12
2196 1 0.000635 -0.0152441 -0.0050791 -0.0038836 -2.55195e-11 -1.79604e-10 -4.4025e-10 4.98949e-12 1.19289e-11
2364 1 0.000635 -0.0130668 -0.00507931 -0.00420357 -1.31964e-10 -1.15354e-10 -1.05037e-09 3.54496e-11 3.30035e-11
2533 1 0.000635 -0.0108715 -0.00508 -0.00432 -5.7901e-06 -3.35849e-06 -1.0675e-06 2.89525e-11 2.01821e-13
2704 1 0.000635 -0.00867182 -0.00508 -0.00432 -6.19774e-17 -2.3845e-17 2.16e-11 0 1.42216e-35
2875 1 0.000635 -0.00647211 -0.00508 -0.00432 -1.44605e-16 -2.38442e-17 2.16e-11 0 3.49075e-35
3047 1 0.000635 -0.00427241 -0.00508 -0.00432 -1.03287e-16 -2.38433e-17 2.16e-11 1.57928e-24 2.45645e-35
3220 1 0.000635 -0.0020727 -0.00508 -0.00432 -3.38813e-21 -2.38442e-17 2.16e-11 0 2.58574e-36
3393 1 0.000635 0.000127 -0.00508 -0.00432 0 -2.38442e-17 2.16e-11 0 2.58574e-36
3566 1 0.000635 0.0023267 -0.00508 -0.00432 -3.38813e-21 -2.38459e-17 2.16e-11 0 2.58574e-36
3739 1 0.000635 0.00452641 -0.00508 -0.00432 4.13081e-17 -2.38433e-17 2.16e-11 5.26426e-25 2.84431e-35
3911 1 0.000635 0.00672611 -0.00508 -0.00432 6.19859e-17 -2.38442e-17 2.16e-11 0 1.42216e-35
4082 1 0.000635 0.00892582 -0.00508 -0.00432 -8.47033e-21 -2.3845e-17 2.16e-11 0 2.58574e-36
4253 1 0.000635 0.0111255 -0.00508 -0.00432 -2.13715e-05 1.23011e-05 -3.5859e-06 1.18044e-10 2.78557e-12
4422 1 0.000635 0.0133199 -0.00507825 -0.00420496 6.85412e-13 -4.30626e-11 4.24114e-10 2.30771e-10 9.72339e-12
4506 1 0.000635 0.0143587 -0.00566873 -0.00377646 2.46935e-10 -2.69665e-10 -2.95315e-10 3.36136e-10 4.7655e-11
4590 1 0.000635 0.0154703 -0.00505715 -0.00375441 5.18755e-11 2.88397e-11 2.10151e-10 2.31985e-10 2.69151e-11
2032 1 0.000635 -0.0174064 -0.00380972 -0.00347761 -5.37793e-10 -7.46263e-11 -2.81349e-09 3.0916e-13 2.84726e-12
2114 1 0.000635 -0.0163256 -0.00444448 -0.00368249 6.7683e-11 -1.42896e-10 3.49367e-10 9.08276e-13 5.50967e-12
2197 1 0.000635 -0.0152393 -0.00380953 -0.00385802 3.9976e-10 -1.79429e-10 2.44162e-09 1.82295e-12 6.29279e-12
2280 1 0.000635 -0.0141551 -0.00444432 -0.00404407 -1.42433e-10 -1.38127e-10 -1.06197e-09 1.02852e-11 1.35295e-11
2365 1 0.000635 -0.0130646 -0.00380977 -0.004195 -1.73666e-10 -5.99363e-11 -1.22113e-09 5.03181e-11 1.61529e-11
2449 1 0.000635 -0.0119714 -0.004445 -0.00432 -8.32954e-05 -3.02e-05 1.37369e-05 4.73888e-11 2.4625e-11
2534 1 0.000635 -0.0108715 -0.00381 -0.00432 -2.28145e-08 -1.48556e-08 -2.14005e-06 4.34711e-11 4.65433e-35
2619 1 0.000635 -0.00977167 -0.004445 -0.00432 -2.2821e-10 3.95271e-10 -2.44753e-07 1.13239e-12 6.01185e-35
2705 1 0.000635 -0.00867182 -0.00381 -0.00432 -8.2623e-17 0 2.16e-11 1.05285e-24 2.06859e-35
2790 1 0.000635 -0.00757197 -0.004445 -0.00432 1.44602e-16 -5.96282e-17 2.16e-11 5.26426e-25 3.74932e-35
2876 1 0.000635 -0.00647211 -0.00381 -0.00432 -1.44605e-16 0 2.16e-11 0 3.23218e-35
2961 1 0.000635 -0.00537226 -0.004445 -0.00432 1.44604e-16 -5.9629e-17 2.16e-11 5.26426e-25 3.74932e-35
3048 1 0.000635 -0.00427241 -0.00381 -0.00432 -1.03291e-16 0 2.16e-11 0 1.68073e-35
3134 1 0.000635 -0.00317256 -0.004445 -0.00432 3.09963e-17 -5.36693e-17 2.16e-11 1.57928e-24 8.40366e-36
3221 1 0.000635 -0.0020727 -0.00381 -0.00432 -6.77626e-21 0 2.16e-11 2.10571e-24 0
3307 1 0.000635 -0.000972852 -0.004445 -0.00432 0 -4.77053e-17 2.16e-11 1.05285e-24 5.17148e-36
3394 1 0.000635 0.000127 -0.00381 -0.00432 0 0 2.16e-11 1.05285e-24 0
3480 1 0.000635 0.00122685 -0.004445 -0.00432 0 -4.77053e-17 2.16e-11 1.05285e-24 5.17148e-36
3567 1 0.000635 0.0023267 -0.00381 -0.00432 0 0 2.16e-11 2.10571e-24 0
3653 1 0.000635 0.00342656 -0.004445 -0.00432 3.09811e-17 -5.36701e-17 2.16e-11 1.05285e-24 8.40366e-36
3740 1 0.000635 0.00452641 -0.00381 -0.00432 4.13217e-17 7.70372e-34 2.16e-11 0 1.29287e-35
3826 1 0.000635 0.00562626 -0.004445 -0.00432 -1.44597e-16 -5.9629e-17 2.16e-11 5.26426e-25 3.74932e-35
3912 1 0.000635 0.00672611 -0.00381 -0.00432 8.26298e-17 0 2.16e-11 1.05285e-24 2.06859e-35
3997 1 0.000635 0.00782597 -0.004445 -0.00432 -3.38813e-21 -4.77061e-17 2.16e-11 1.05285e-24 5.17148e-36
4083 1 0.000635 0.00892582 -0.00381 -0.00432 -6.77626e-21 0 2.16e-11 1.05285e-24 0
4168 1 0.000635 0.0100257 -0.004445 -0.00432 2.05184e-09 3.55389e-09 -3.3299e-07 2.09647e-12 6.01185e-35
4254 1 0.000635 0.0111255 -0.00381 -0.00432 1.09655e-08 -1.50839e-09 -1.67233e-06 2.76842e-11 4.65433e-35
4338 1 0.000635 0.0122254 -0.004445 -0.00432 2.90336e-05 5.88176e-06 1.72436e-06 1.99068e-10 1.43193e-11
4423 1 0.000635 0.0133238 -0.00380931 -0.0042534 -9.06378e-11 2.04938e-11 1.07643e-09 1.34405e-10 2.5845e-11
4507 1 0.000635 0.0144141 -0.00444241 -0.00409988 -1.77293e-10 1.49292e-10 1.29962e-09 1.99212e-10 9.45163e-12
4591 1 0.000635 0.0155073 -0.00380795 -0.00397797 1.87359e-12 -2.74593e-12 5.74365e-11 1.39156e-10 1.31145e-11
4673 1 0.000635 0.0165759 -0.00443568 -0.00369922 3.56445e-10 -3.486e-10 -1.57587e-09 1.2073e-10 6.91184e-12
4756 1 0.000635 0.0176738 -0.00380617 -0.00359509 7.41622e-11 -2.4953e-11 -7.79625e-11 9.22708e-11 6.42275e-12
2033 1 0.000635 -0.0174036 -0.00253985 -0.00346308 -1.00034e-09 -3.56854e-11 -5.28683e-09 2.4987e-13 2.03135e-12
2115 1 0.000635 -0.0163218 -0.00317472 -0.00366212 5.7822e-12 -1.15303e-10 2.78064e-10 5.42271e-13 3.32731e-12
2198 1 0.000635 -0.0152367 -0.00253977 -0.00384448 1.06562e-10 -1.03183e-10 1.01369e-09 1.20704e-12 3.91776e-12
2281 1 0.000635 -0.0141522 -0.0031747 -0.00402924 1.90913e-11 -1.07981e-10 4.01784e-10 5.71996e-12 7.13831e-12
2366 1 0.000635 -0.0130643 -0.00253991 -0.00419363 4.86524e-10 -3.86649e-11 3.95711e-09 5.25083e-11 4.66217e-12
2450 1 0.000635 -0.0119714 -0.003175 -0.00432 -3.20409e-05 -8.69868e-07 7.27698e-06 5.13848e-11 3.19353e-12
2535 1 0.000635 -0.0108715 -0.00254 -0.00432 -2.90737e-08 -3.17893e-09 -2.21145e-06 4.63563e-11 6.33506e-35
2620 1 0.000635 -0.00977167 -0.003175 -0.00432 -1.3427e-16 4.1748e-17 2.16e-11 5.26426e-25 5.81792e-35
2706 1 0.000635 -0.00867182 -0.00254 -0.00432 -7.2301e-17 -5.97417e-18 2.16e-11 0 1.61609e-35
2791 1 0.000635 -0.00757197 -0.003175 -0.00432 1.44602e-16 4.77053e-17 2.16e-11 5.26426e-25 3.55539e-35
2877 1 0.000635 -0.00647211 -0.00254 -0.00432 -1.44605e-16 -1.19365e-17 2.16e-11 0 3.23218e-35
2962 1 0.000635 -0.00537226 -0.003175 -0.00432 1.44604e-16 4.7707e-17 2.16e-11 0 3.55539e-35
3049 1 0.000635 -0.00427241 -0.00254 -0.00432 -1.03284e-16 -1.19373e-17 2.16e-11 5.26426e-25 1.93931e-35
3135 1 0.000635 -0.00317256 -0.003175 -0.00432 3.09963e-17 4.17472e-17 2.16e-11 1.05285e-24 6.46435e-36
3222 1 0.000635 -0.0020727 -0.00254 -0.00432 0 -1.43996e-20 2.16e-11 0 0
3308 1 0.000635 -0.000972852 -0.003175 -0.00432 0 3.57823e-17 2.16e-11 1.05285e-24 3.23218e-36
3395 1 0.000635 0.000127 -0.00254 -0.00432 0 -1.35525e-20 2.16e-11 0 0
3481 1 0.000635 0.00122685 -0.003175 -0.00432 0 3.57823e-17 2.16e-11 1.05285e-24 3.23218e-36
3568 1 0.000635 0.0023267 -0.00254 -0.00432 -6.77626e-21 -1.35525e-20 2.16e-11 0 0
3654 1 0.000635 0.00342656 -0.003175 -0.00432 3.09777e-17 4.17463e-17 2.16e-11 1.05285e-24 6.46435e-36
3741 1 0.000635 0.00452641 -0.00254 -0.00432 4.13115e-17 -1.19382e-17 2.16e-11 5.26426e-25 1.93931e-35
3827 1 0.000635 0.00562626 -0.003175 -0.00432 -1.44595e-16 4.77053e-17 2.16e-11 5.26426e-25 3.55539e-35
3913 1 0.000635 0.00672611 -0.00254 -0.00432 7.23095e-17 -5.97502e-18 2.16e-11 0 1.61609e-35
3998 1 0.000635 0.00782597 -0.003175 -0.00432 0 3.57823e-17 2.16e-11 1.05285e-24 3.23218e-36
4084 1 0.000635 0.00892582 -0.00254 -0.00432 -8.47033e-21 -1.27055e-20 2.16e-11 0 0
4169 1 0.000635 0.0100257 -0.003175 -0.00432 1.3427e-16 4.1748e-17 2.16e-11 5.26426e-25 5.81792e-35
4255 1 0.000635 0.0111255 -0.00254 -0.00432 7.54689e-09 -1.14582e-08 -1.33872e-06 1.72096e-11 6.33506e-35
4339 1 0.000635 0.0122254 -0.003175 -0.00432 4.12131e-05 1.38854e-05 3.76391e-06 3.04534e-11 6.91389e-12
4424 1 0.000635 0.0133233 -0.00253959 -0.00424541 2.32249e-10 -9.44358e-13 -2.07864e-09 3.30965e-11 1.59586e-11
4508 1 0.000635 0.0144195 -0.00317393 -0.00414792 5.75074e-10 -4.82862e-11 -4.70078e-09 1.55273e-10 3.52703e-11
4592 1 0.000635 0.0155117 -0.00253902 -0.00401012 4.27567e-10 -8.74853e-11 -2.74498e-09 7.41442e-11 3.02227e-11
4674 1 0.000635 0.0165987 -0.00317373 -0.00383664 4.20342e-10 -2.4612e-10 -2.34438e-09 1.02802e-10 1.58502e-11
4757 1 0.000635 0.0176876 -0.00253923 -0.00367695 5.76165e-10 -1.99719e-10 -3.05106e-09 5.05964e-11 1.35175e-11
4839 1 0.000635 0.0187661 -0.00317326 -0.00345575 3.11758e-10 -2.7405e-10 -1.24104e-09 5.6949e-11 6.77933e-12