ITEM: TIMESTEP
720000
ITEM: NUMBER OF ATOMS
6793
ITEM: BOX BOUNDS ff ff ff
-8.9999999999999997e-02 8.9999999999999997e-02
-8.9999999999999997e-02 8.9999999999999997e-02
-4.0000000000000001e-02 4.0000000000000001e-02
ITEM: ATOMS id type radius x y z fx fy fz c_bendingE c_stretchingE
3384 1 0.000635 0.000107547 -0.0164273 -0.00706902 1.54512e-10 2.10086e-10 2.79152e-10 1.00212e-09 2.1394e-11
3470 1 0.000635 0.00119774 -0.0170523 -0.00688935 1.43518e-10 1.23106e-09 3.96044e-09 5.75559e-10 6.20943e-11
3557 1 0.000635 0.00230039 -0.0164272 -0.00696149 -8.59713e-11 1.26755e-09 4.7192e-09 1.21664e-10 4.85907e-11
3298 1 0.000635 -0.000938286 -0.015715 -0.00697169 -3.88821e-10 -2.49725e-10 -8.83648e-10 1.60749e-09 6.81653e-11
3385 1 0.000635 0.000123841 -0.0152196 -0.00746093 1.70237e-10 2.60931e-10 9.02896e-10 7.78008e-10 5.12227e-11
3471 1 0.000635 0.0012149 -0.0158304 -0.00724072 2.48799e-10 2.20308e-10 7.09523e-10 8.17501e-10 8.54755e-11
3558 1 0.000635 0.00231132 -0.0151907 -0.00725652 4.67732e-10 -2.63933e-10 -1.24009e-09 6.08843e-11 7.42043e-11
3644 1 0.000635 0.0033978 -0.0157896 -0.00698446 7.9829e-10 -9.27386e-10 -3.25671e-09 1.13046e-11 2.12389e-11
3731 1 0.000635 0.00449973 -0.0151627 -0.00704845 6.85383e-10 -7.08775e-10 -1.84088e-09 9.48255e-12 1.36174e-11
3903 1 0.000635 0.00669647 -0.0151605 -0.00694158 7.12402e-10 -1.1719e-09 -3.04623e-09 3.12128e-11 1.7419e-11
3040 1 0.000635 -0.00418411 -0.0138087 -0.00698908 -1.81581e-09 -3.70723e-09 -4.80717e-09 6.56934e-10 2.47262e-11
3126 1 0.000635 -0.00306273 -0.014401 -0.00691743 -1.72123e-09 -4.19568e-09 -5.14972e-09 1.22938e-09 4.78455e-11
3213 1 0.000635 -0.00206941 -0.0139525 -0.00757197 -2.70235e-10 -2.41035e-10 -8.75315e-10 1.20353e-09 2.10807e-10
3299 1 0.000635 -0.000973254 -0.0145899 -0.00755767 -4.45412e-11 -2.00933e-10 -8.30176e-10 1.18e-09 9.47149e-11
3386 1 0.000635 0.000126788 -0.0139667 -0.00767373 8.11868e-11 1.66495e-10 1.39712e-09 9.16129e-10 2.92776e-11
3472 1 0.000635 0.00122315 -0.0145875 -0.00751027 4.49327e-10 -4.52751e-10 -2.30001e-09 3.91361e-10 7.70248e-11
3559 1 0.000635 0.0023204 -0.0139489 -0.00753003 2.4242e-10 2.06355e-11 3.61376e-10 1.24098e-10 1.954e-10
3645 1 0.000635 0.00340963 -0.0145555 -0.00728652 2.25998e-10 1.78298e-10 1.88759e-09 2.47198e-11 3.53834e-11
3732 1 0.000635 0.00451273 -0.013933 -0.00736664 -8.74138e-11 1.38629e-09 6.57893e-09 3.30042e-11 3.1578e-11
3818 1 0.000635 0.00560461 -0.0145462 -0.00715189 1.64707e-10 1.29046e-09 5.86896e-09 1.44368e-11 1.26277e-11
3904 1 0.000635 0.00670945 -0.013929 -0.00725391 4.65177e-10 -8.65885e-10 -2.03965e-09 4.08899e-11 1.54641e-11
3989 1 0.000635 0.00780173 -0.0145456 -0.00705297 3.7798e-10 -1.59072e-10 9.87234e-10 6.08841e-10 6.78788e-11
4075 1 0.000635 0.00890029 -0.0139103 -0.00708221 3e-10 -4.43554e-10 -1.38088e-10 7.52359e-10 1.52682e-11
2869 1 0.000635 -0.0064029 -0.0125747 -0.0070702 1.74845e-09 3.53861e-09 5.88461e-09 5.15329e-10 2.55048e-12
2954 1 0.000635 -0.00529559 -0.0131955 -0.00703441 -2.21158e-10 -2.37302e-11 4.11456e-11 5.59778e-10 4.91237e-12
3041 1 0.000635 -0.00426393 -0.0126819 -0.00756848 3.4422e-10 2.78309e-10 2.07792e-09 7.17555e-10 8.03897e-11
3127 1 0.000635 -0.00316541 -0.0133159 -0.00756722 2.06067e-10 3.28009e-10 2.11359e-09 8.62387e-10 2.23696e-10
3214 1 0.000635 -0.0020727 -0.0127 -0.007776 -7.20076e-05 6.07632e-06 4.48727e-06 1.01339e-09 4.61768e-11
3300 1 0.000635 -0.000972964 -0.0133347 -0.00774776 -1.29907e-11 6.93984e-11 1.49203e-09 7.41243e-10 1.59305e-11
3387 1 0.000635 0.000127 -0.0127 -0.007776 -1.77398e-07 -5.91254e-05 4.48059e-06 9.72044e-11 1.09109e-11
3473 1 0.000635 0.00122648 -0.0133335 -0.00771749 7.08949e-11 6.19539e-11 9.63325e-10 9.17146e-11 4.15154e-11
3560 1 0.000635 0.0023267 -0.0127 -0.007776 5.40321e-05 -0.000235556 5.88907e-05 1.52687e-10 1.85168e-10
3733 1 0.000635 0.00452287 -0.0126917 -0.0076341 1.62576e-10 -2.10299e-10 -9.79451e-10 9.10837e-11 1.63908e-11
3646 1 0.000635 0.00342056 -0.0133195 -0.0075812 -5.52633e-10 2.00055e-09 1.05186e-08 1.30472e-10 1.14479e-10
3819 1 0.000635 0.00561651 -0.0133111 -0.00744803 3.49261e-10 -7.96856e-10 -2.65747e-09 3.22931e-11 1.12511e-11
3905 1 0.000635 0.00671918 -0.0126849 -0.00751173 7.18394e-11 -3.2134e-11 2.51933e-09 4.9467e-11 7.89826e-12
3990 1 0.000635 0.00781317 -0.0133076 -0.00734282 4.91025e-10 -9.43777e-10 -2.32962e-09 4.36427e-10 7.00641e-11
4076 1 0.000635 0.0089112 -0.0126701 -0.00735276 3.71256e-10 -4.87845e-10 -6.34777e-11 8.4581e-10 1.20438e-11
2784 1 0.000635 -0.00750826 -0.0119508 -0.00710284 5.66555e-10 6.89655e-10 1.79779e-09 5.05199e-10 1.47011e-11
2870 1 0.000635 -0.00646351 -0.0114157 -0.00758642 -3.02924e-10 -3.44052e-10 -2.11999e-09 5.75961e-10 2.05797e-11
2955 1 0.000635 -0.00536341 -0.0120486 -0.00757526 -8.00112e-11 -4.06894e-10 -1.58783e-09 6.26694e-10 3.0658e-11
3042 1 0.000635 -0.00427241 -0.01143 -0.007776 -6.8045e-06 5.01467e-05 -6.83369e-06 5.10304e-10 1.39127e-11
3128 1 0.000635 -0.00317256 -0.012065 -0.007776 -3.49849e-05 7.83656e-05 -9.90535e-06 6.47746e-10 5.203e-11
3215 1 0.000635 -0.0020727 -0.01143 -0.007776 2.13291e-08 -8.73579e-08 -3.62995e-06 1.25551e-10 5.17148e-36
3301 1 0.000635 -0.000972852 -0.012065 -0.007776 5.17454e-08 -1.95981e-06 -3.24638e-06 1.09636e-10 1.51624e-14
3388 1 0.000635 0.000127 -0.01143 -0.007776 1.86454e-09 -1.69407e-21 -9.0135e-07 1.53788e-11 5.17148e-36
3474 1 0.000635 0.00122685 -0.012065 -0.007776 -2.26191e-08 8.81468e-06 -2.65821e-06 9.50958e-11 3.63575e-13
3561 1 0.000635 0.0023267 -0.01143 -0.007776 3.1637e-08 -4.12743e-08 -3.41514e-06 1.1913e-10 5.17148e-36
3647 1 0.000635 0.00342656 -0.012065 -0.007776 3.53785e-05 5.802e-06 4.68959e-06 1.09087e-10 1.07422e-11
3734 1 0.000635 0.00452641 -0.01143 -0.007776 1.63595e-05 8.72162e-06 2.52932e-06 7.4326e-11 3.1256e-12
3820 1 0.000635 0.00562398 -0.0120601 -0.00766613 -7.25709e-11 3.28826e-10 3.87693e-09 6.65177e-11 3.93964e-12
3906 1 0.000635 0.00672464 -0.0114273 -0.00769094 -2.66848e-10 6.71082e-10 8.00606e-09 6.167e-11 2.63536e-12
3991 1 0.000635 0.00782126 -0.0120567 -0.00757132 -2.67394e-10 7.33462e-10 7.4475e-09 6.56434e-10 5.62611e-11
4077 1 0.000635 0.00892016 -0.0114193 -0.00757057 1.2564e-11 8.25327e-11 3.11575e-09 6.17507e-10 8.86569e-12
4162 1 0.000635 0.00991577 -0.0119733 -0.0070101 2.70713e-09 -1.97055e-09 -3.75236e-09 1.10036e-09 4.25297e-11
2614 1 0.000635 -0.00971782 -0.0107043 -0.00717494 -5.96552e-10 -1.0046e-09 -8.18794e-10 5.66702e-10 1.08196e-10
2699 1 0.000635 -0.00861283 -0.0113264 -0.00713614 -7.69324e-10 -1.70705e-09 -2.09309e-09 5.22607e-10 4.78028e-11
2785 1 0.000635 -0.00756387 -0.0107831 -0.00760025 2.18431e-11 3.16005e-10 1.57493e-09 5.48586e-10 3.06135e-11
2956 1 0.000635 -0.00537226 -0.010795 -0.007776 1.48499e-05 3.13223e-05 -5.24444e-06 4.46053e-10 3.94969e-12
3129 1 0.000635 -0.00317256 -0.010795 -0.007776 -1.98698e-08 -7.48721e-08 -3.61419e-06 1.24512e-10 6.46435e-36
3302 1 0.000635 -0.000972852 -0.010795 -0.007776 9.88997e-10 1.69407e-21 -2.4903e-07 1.17232e-12 5.17148e-36
3475 1 0.000635 0.00122685 -0.010795 -0.007776 3.32561e-09 -1.69407e-21 -5.16084e-07 5.03656e-12 5.17148e-36
3648 1 0.000635 0.00342656 -0.010795 -0.007776 3.92877e-08 -2.36458e-08 -2.68741e-06 7.39901e-11 1.0343e-35
3821 1 0.000635 0.00562626 -0.010795 -0.007776 1.06383e-05 9.05089e-07 2.38553e-06 4.77582e-11 9.12641e-13
3992 1 0.000635 0.00782524 -0.0107941 -0.00771866 -1.93458e-10 3.93934e-10 6.09917e-09 3.28989e-10 3.20149e-11
4163 1 0.000635 0.00998999 -0.0107617 -0.00738055 5.60684e-10 -2.02165e-10 4.5005e-10 6.94312e-10 1.44278e-11
2445 1 0.000635 -0.0119328 -0.0094751 -0.00728418 -1.31312e-10 -7.20485e-10 -6.66379e-10 9.08679e-10 1.87388e-10
2529 1 0.000635 -0.0108246 -0.0100875 -0.00722499 3.30487e-10 7.63263e-10 1.97472e-09 6.53401e-10 1.72848e-10
2615 1 0.000635 -0.00976441 -0.00951705 -0.00762571 2.95057e-10 3.01423e-10 2.18676e-09 5.88966e-10 7.64668e-11
2700 1 0.000635 -0.00866426 -0.0101504 -0.00761458 3.10111e-10 5.83883e-10 3.66774e-09 5.43542e-10 5.26201e-11
2786 1 0.000635 -0.00757197 -0.009525 -0.007776 4.96393e-05 8.7225e-06 -4.12671e-06 3.75224e-10 1.69147e-11
2871 1 0.000635 -0.00647211 -0.01016 -0.007776 3.3311e-05 1.86006e-05 -4.52234e-06 4.07945e-10 6.93455e-12
2957 1 0.000635 -0.00537226 -0.009525 -0.007776 -5.04723e-08 -4.77648e-08 -3.32191e-06 1.05498e-10 3.74932e-35
3043 1 0.000635 -0.00427241 -0.01016 -0.007776 -3.9364e-08 -6.14584e-08 -3.5041e-06 1.17192e-10 2.71503e-35
3130 1 0.000635 -0.00317256 -0.009525 -0.007776 2.0671e-17 0 2.16e-11 1.05285e-24 6.46435e-36
3216 1 0.000635 -0.0020727 -0.01016 -0.007776 -6.77626e-21 0 2.16e-11 0 5.17148e-36
3303 1 0.000635 -0.000972852 -0.009525 -0.007776 0 0 2.16e-11 0 5.17148e-36
3389 1 0.000635 0.000127 -0.01016 -0.007776 0 0 2.16e-11 0 5.17148e-36
3476 1 0.000635 0.00122685 -0.009525 -0.007776 0 0 2.16e-11 0 5.17148e-36
3562 1 0.000635 0.0023267 -0.01016 -0.007776 0 0 2.16e-11 0 5.17148e-36
3649 1 0.000635 0.00342656 -0.009525 -0.007776 4.13115e-17 0 2.16e-11 0 1.0343e-35
3735 1 0.000635 0.00452641 -0.01016 -0.007776 2.41531e-08 -1.23122e-08 -2.00184e-06 4.03719e-11 3.10289e-35
3822 1 0.000635 0.00562626 -0.009525 -0.007776 1.84024e-08 -2.95043e-09 -1.47466e-06 2.2622e-11 3.74932e-35
3907 1 0.000635 0.00672611 -0.01016 -0.007776 1.09098e-05 -1.41276e-05 1.96659e-06 4.09188e-11 1.00022e-12
3993 1 0.000635 0.00782597 -0.009525 -0.007776 1.28415e-06 -2.4294e-05 -1.48206e-07 1.41083e-10 2.52161e-12
4078 1 0.000635 0.0089254 -0.0101582 -0.00771896 -1.52312e-10 1.31242e-10 3.44188e-09 6.20077e-10 2.95526e-11
4164 1 0.000635 0.0100193 -0.00951708 -0.00762916 3.27597e-11 3.47389e-11 5.03132e-10 5.83343e-10 3.78029e-11
4249 1 0.000635 0.0110092 -0.0100748 -0.00706157 -2.81266e-10 6.69266e-10 1.4067e-09 5.4443e-10 2.83586e-11
2193 1 0.000635 -0.0151682 -0.00887506 -0.00696167 -3.78506e-10 -4.50486e-10 -6.92343e-10 1.5176e-09 2.26988e-11
2277 1 0.000635 -0.0141506 -0.00824889 -0.00739047 -3.0141e-10 -1.97745e-10 -7.19118e-10 1.36885e-09 5.68842e-11
2361 1 0.000635 -0.0130413 -0.00886198 -0.00733739 -5.57146e-10 -1.27653e-09 -1.94598e-09 1.7681e-09 1.06955e-10
2446 1 0.000635 -0.011966 -0.00825212 -0.00762681 1.55533e-10 2.04145e-10 3.68244e-09 9.20933e-10 8.9632e-12
2530 1 0.000635 -0.0108649 -0.00888459 -0.00763257 -3.47107e-10 -7.74234e-10 -2.66926e-09 7.92737e-10 2.94108e-11
2616 1 0.000635 -0.00977167 -0.008255 -0.007776 1.02783e-05 -4.19511e-05 5.38591e-06 2.73125e-10 1.52096e-11
2701 1 0.000635 -0.00867182 -0.00889 -0.007776 6.27968e-05 -8.60338e-07 -3.78677e-06 3.32222e-10 3.03294e-11
2787 1 0.000635 -0.00757197 -0.008255 -0.007776 -5.69946e-08 -2.48643e-08 -2.87649e-06 7.91009e-11 4.0079e-35
2872 1 0.000635 -0.00647211 -0.00889 -0.007776 -5.57137e-08 -3.49971e-08 -3.09685e-06 9.17925e-11 3.74932e-35
2958 1 0.000635 -0.00537226 -0.008255 -0.007776 1.44607e-16 -7.15799e-17 2.16e-11 5.26426e-25 4.0079e-35
3044 1 0.000635 -0.00427241 -0.00889 -0.007776 -1.03289e-16 -4.76841e-17 2.16e-11 1.05285e-24 2.71503e-35
3131 1 0.000635 -0.00317256 -0.008255 -0.007776 3.09912e-17 -7.75431e-17 2.16e-11 5.26426e-25 1.87466e-35
3217 1 0.000635 -0.0020727 -0.00889 -0.007776 -3.38813e-21 -4.76866e-17 2.16e-11 0 5.17148e-36
3304 1 0.000635 -0.000972852 -0.008255 -0.007776 0 -7.15833e-17 2.16e-11 0 1.0343e-35
3390 1 0.000635 0.000127 -0.00889 -0.007776 0 -4.76866e-17 2.16e-11 0 5.17148e-36
3477 1 0.000635 0.00122685 -0.008255 -0.007776 0 -7.15833e-17 2.16e-11 0 1.0343e-35
3563 1 0.000635 0.0023267 -0.00889 -0.007776 0 -4.76858e-17 2.16e-11 0 5.17148e-36
3650 1 0.000635 0.00342656 -0.008255 -0.007776 4.13098e-17 -7.15825e-17 2.16e-11 0 1.0343e-35
3736 1 0.000635 0.00452641 -0.00889 -0.007776 4.13115e-17 -4.76841e-17 2.16e-11 0 3.10289e-35
3823 1 0.000635 0.00562626 -0.008255 -0.007776 -1.446e-16 -7.15791e-17 2.16e-11 0 4.0079e-35
3908 1 0.000635 0.00672611 -0.00889 -0.007776 7.01865e-09 -1.03008e-08 -1.2531e-06 1.54347e-11 1.68073e-35
3994 1 0.000635 0.00782597 -0.008255 -0.007776 -9.74543e-09 -2.80183e-08 -1.80147e-06 3.66992e-11 1.0343e-35
4079 1 0.000635 0.00892582 -0.00889 -0.007776 -4.51989e-05 5.4142e-05 -9.246e-06 3.46216e-10 1.63171e-11
4165 1 0.000635 0.0100257 -0.008255 -0.007776 0.000103463 2.07775e-05 2.01674e-05 4.74789e-10 6.42855e-11
4250 1 0.000635 0.0110837 -0.00885813 -0.0074155 -7.79975e-11 2.9454e-10 7.93332e-10 5.96911e-10 1.15078e-11
4335 1 0.000635 0.0121221 -0.00818205 -0.00713763 -1.11754e-09 9.48384e-10 2.66613e-09 5.38669e-10 1.08618e-11
2194 1 0.000635 -0.0152133 -0.00761456 -0.007107 5.73178e-10 -7.87041e-11 1.88346e-09 7.72477e-10 9.57539e-11
2278 1 0.000635 -0.0141464 -0.00698004 -0.00738406 -1.64315e-09 8.35126e-11 -6.14654e-09 1.18126e-09 1.0064e-10
2362 1 0.000635 -0.0130657 -0.00761723 -0.00758604 3.3504e-10 8.26203e-11 4.5625e-09 9.0128e-10 2.90991e-11
2447 1 0.000635 -0.0119703 -0.00698475 -0.00770775 5.51985e-11 4.1297e-11 1.56088e-09 1.65689e-10 1.62425e-11
2531 1 0.000635 -0.0108714 -0.00762001 -0.00775162 2.89189e-10 1.37115e-10 6.7869e-09 2.09988e-10 2.27176e-12
2617 1 0.000635 -0.00977167 -0.006985 -0.007776 -6.35236e-06 -3.63277e-06 -1.95818e-06 5.09861e-11 2.38953e-13
2702 1 0.000635 -0.00867182 -0.00762 -0.007776 -6.05888e-08 -1.04323e-08 -2.68826e-06 6.88599e-11 2.9736e-35
2788 1 0.000635 -0.00757197 -0.006985 -0.007776 1.44605e-16 -2.38958e-17 2.16e-11 0 4.0079e-35
2873 1 0.000635 -0.00647211 -0.00762 -0.007776 -1.44609e-16 2.38967e-17 2.16e-11 0 4.0079e-35
2959 1 0.000635 -0.00537226 -0.006985 -0.007776 1.44605e-16 -2.38958e-17 2.16e-11 0 4.0079e-35
3045 1 0.000635 -0.00427241 -0.00762 -0.007776 -1.13623e-16 2.98573e-17 2.16e-11 0 2.90896e-35
3132 1 0.000635 -0.00317256 -0.006985 -0.007776 3.09912e-17 -2.98573e-17 2.16e-11 0 1.87466e-35
3218 1 0.000635 -0.0020727 -0.00762 -0.007776 -1.69407e-21 2.38958e-17 2.16e-11 0 1.0343e-35
3305 1 0.000635 -0.000972852 -0.006985 -0.007776 0 -2.38967e-17 2.16e-11 0 1.0343e-35
3391 1 0.000635 0.000127 -0.00762 -0.007776 0 2.38967e-17 2.16e-11 0 1.0343e-35
3478 1 0.000635 0.00122685 -0.006985 -0.007776 0 -2.38967e-17 2.16e-11 0 1.0343e-35
3564 1 0.000635 0.0023267 -0.00762 -0.007776 0 2.38967e-17 2.16e-11 0 1.0343e-35
3651 1 0.000635 0.00342656 -0.006985 -0.007776 4.13081e-17 -2.38967e-17 2.16e-11 0 1.0343e-35
3737 1 0.000635 0.00452641 -0.00762 -0.007776 4.13217e-17 2.38958e-17 2.16e-11 0 2.06859e-35
3824 1 0.000635 0.00562626 -0.006985 -0.007776 -1.44599e-16 -2.3895e-17 2.16e-11 0 4.0079e-35
3909 1 0.000635 0.00672611 -0.00762 -0.007776 6.19757e-17 2.38958e-17 2.16e-11 0 2.9736e-35
3995 1 0.000635 0.00782597 -0.006985 -0.007776 -6.77626e-21 -2.38967e-17 2.16e-11 0 1.0343e-35
4080 1 0.000635 0.00892582 -0.00762 -0.007776 -2.58941e-08 -5.11703e-08 -3.68234e-06 1.99864e-10 1.0343e-35
4166 1 0.000635 0.0100257 -0.006985 -0.007776 -5.29972e-05 3.04951e-05 -8.74307e-06 3.59345e-10 1.72617e-11
4251 1 0.000635 0.0111217 -0.00761681 -0.00767859 1.33618e-10 -4.53206e-11 -8.04505e-10 5.66238e-10 9.76412e-11
4336 1 0.000635 0.0121993 -0.00696698 -0.00749951 -1.78619e-10 1.73683e-10 6.33905e-10 6.46569e-10 6.01246e-11
2195 1 0.000635 -0.015198 -0.00634605 -0.00705927 9.10514e-10 -1.57698e-10 2.84705e-09 9.16026e-11 4.14183e-11
2279 1 0.000635 -0.0141311 -0.00571172 -0.00733303 -4.65689e-10 5.02084e-11 -1.4596e-09 4.90975e-11 4.93832e-11
2363 1 0.000635 -0.0130628 -0.00634788 -0.00759028 1.5251e-10 -3.80301e-11 2.453e-09 1.67688e-10 4.30403e-11
2448 1 0.000635 -0.0119708 -0.0057152 -0.00774009 2.8101e-10 9.9559e-11 4.76558e-09 8.09075e-11 2.73431e-11
2532 1 0.000635 -0.0108715 -0.00635 -0.007776 -3.39201e-05 -3.62102e-05 2.28375e-06 5.07203e-11 8.96964e-12
2618 1 0.000635 -0.00977167 -0.005715 -0.007776 -1.42724e-09 2.47206e-09 -6.01533e-07 6.84353e-12 6.85221e-35
2703 1 0.000635 -0.00867182 -0.00635 -0.007776 -3.21017e-10 5.56017e-10 -2.14985e-07 8.73689e-13 2.9736e-35
2789 1 0.000635 -0.00757197 -0.005715 -0.007776 1.44602e-16 4.76832e-17 2.16e-11 0 3.74932e-35
2874 1 0.000635 -0.00647211 -0.00635 -0.007776 -1.44609e-16 7.15816e-17 2.16e-11 0 4.0079e-35
2960 1 0.000635 -0.00537226 -0.005715 -0.007776 1.44604e-16 4.76841e-17 2.16e-11 5.26426e-25 3.74932e-35
3046 1 0.000635 -0.00427241 -0.00635 -0.007776 -1.13621e-16 7.75431e-17 2.16e-11 0 2.90896e-35
3133 1 0.000635 -0.00317256 -0.005715 -0.007776 2.0671e-17 4.76858e-17 2.16e-11 5.26426e-25 6.46435e-36
3219 1 0.000635 -0.0020727 -0.00635 -0.007776 -5.0822e-21 7.15842e-17 2.16e-11 0 1.0343e-35
3306 1 0.000635 -0.000972852 -0.005715 -0.007776 0 4.76866e-17 2.16e-11 0 5.17148e-36
3392 1 0.000635 0.000127 -0.00635 -0.007776 0 7.1585e-17 2.16e-11 0 1.0343e-35
3479 1 0.000635 0.00122685 -0.005715 -0.007776 0 4.76866e-17 2.16e-11 0 5.17148e-36
3565 1 0.000635 0.0023267 -0.00635 -0.007776 0 7.15842e-17 2.16e-11 0 1.0343e-35
3652 1 0.000635 0.00342656 -0.005715 -0.007776 4.13098e-17 4.76858e-17 2.16e-11 0 1.0343e-35
3738 1 0.000635 0.00452641 -0.00635 -0.007776 4.13183e-17 7.15816e-17 2.16e-11 0 2.06859e-35
3825 1 0.000635 0.00562626 -0.005715 -0.007776 -1.44597e-16 4.76841e-17 2.16e-11 0 3.74932e-35
3910 1 0.000635 0.00672611 -0.00635 -0.007776 6.19774e-17 7.15825e-17 2.16e-11 0 2.9736e-35
3996 1 0.000635 0.00782597 -0.005715 -0.007776 -6.77626e-21 4.76849e-17 2.16e-11 0 5.17148e-36
4081 1 0.000635 0.00892582 -0.00635 -0.007776 -3.87453e-09 -6.71088e-09 -8.59871e-07 1.3995e-11 1.0343e-35
4167 1 0.000635 0.0100257 -0.005715 -0.007776 -1.12696e-08 -1.95196e-08 -2.44064e-06 1.13949e-10 6.85221e-35
4252 1 0.000635 0.0111255 -0.00635 -0.007776 -0.000118783 -3.91005e-05 -1.30321e-05 5.05889e-10 4.87533e-11
4337 1 0.000635 0.0122229 -0.00571563 -0.0077233 2.43399e-10 -2.11315e-10 -2.84718e-09 6.94717e-10 1.47847e-10
4421 1 0.000635 0.0132382 -0.00629115 -0.0072238 -1.74972e-09 1.1051e-09 2.866e-09 1.10615e-09 1.89568e-11
2196 1 0.000635 -0.015181 -0.00507772 -0.00700436 4.45354e-10 -2.21161e-11 1.24062e-09 1.15162e-11 1.47213e-11
2364 1 0.000635 -0.0130566 -0.00507818 -0.00757823 -6.43676e-10 7.82928e-11 -2.24838e-09 1.13702e-10 9.0889e-11
2533 1 0.000635 -0.0108715 -0.00508 -0.007776 -6.99036e-06 -4.09015e-06 -2.28512e-06 9.26169e-11 2.90586e-13
2704 1 0.000635 -0.00867182 -0.00508 -0.007776 -6.19774e-17 -2.3845e-17 2.16e-11 0 1.42216e-35
2875 1 0.000635 -0.00647211 -0.00508 -0.007776 -1.44605e-16 -2.38442e-17 2.16e-11 0 3.49075e-35
3047 1 0.000635 -0.00427241 -0.00508 -0.007776 -1.03287e-16 -2.38433e-17 2.16e-11 1.57928e-24 2.45645e-35
3220 1 0.000635 -0.0020727 -0.00508 -0.007776 -3.38813e-21 -2.38442e-17 2.16e-11 0 2.58574e-36
3393 1 0.000635 0.000127 -0.00508 -0.007776 0 -2.38442e-17 2.16e-11 0 2.58574e-36
3566 1 0.000635 0.0023267 -0.00508 -0.007776 -3.38813e-21 -2.38459e-17 2.16e-11 0 2.58574e-36
3739 1 0.000635 0.00452641 -0.00508 -0.007776 4.13081e-17 -2.38433e-17 2.16e-11 5.26426e-25 2.84431e-35
3911 1 0.000635 0.00672611 -0.00508 -0.007776 6.19859e-17 -2.38442e-17 2.16e-11 0 1.42216e-35
4082 1 0.000635 0.00892582 -0.00508 -0.007776 -8.47033e-21 -2.3845e-17 2.16e-11 0 2.58574e-36
4253 1 0.000635 0.0111255 -0.00508 -0.007776 -3.65198e-05 2.1001e-05 -6.86654e-06 3.54486e-10 8.16303e-12
4422 1 0.000635 0.0133112 -0.00507773 -0.00759267 4.25853e-11 -8.95187e-11 -4.32009e-10 8.74986e-10 6.52472e-11
2197 1 0.000635 -0.0151694 -0.00380872 -0.00696726 3.88555e-10 -8.95004e-12 1.17003e-09 4.17666e-12 8.72585e-12
2280 1 0.000635 -0.014118 -0.0044432 -0.00729051 -1.36288e-09 2.1383e-10 -5.09972e-09 3.25629e-11 2.29736e-11
2365 1 0.000635 -0.0130498 -0.00380927 -0.00755767 -2.25472e-10 -1.02962e-11 -1.27322e-09 1.55546e-10 2.55229e-11
2449 1 0.000635 -0.0119714 -0.004445 -0.007776 -0.000122954 -7.04899e-05 3.12091e-05 1.41133e-10 6.38388e-11
2534 1 0.000635 -0.0108715 -0.00381 -0.007776 -7.29416e-08 -3.87298e-08 -3.63652e-06 1.26244e-10 4.65433e-35
2619 1 0.000635 -0.00977167 -0.004445 -0.007776 -1.94779e-09 3.37367e-09 -3.16632e-07 1.89552e-12 6.01185e-35
2705 1 0.000635 -0.00867182 -0.00381 -0.007776 -8.2623e-17 0 2.16e-11 1.05285e-24 2.06859e-35
2790 1 0.000635 -0.00757197 -0.004445 -0.007776 1.44602e-16 -5.96282e-17 2.16e-11 5.26426e-25 3.74932e-35
2876 1 0.000635 -0.00647211 -0.00381 -0.007776 -1.44605e-16 0 2.16e-11 0 3.23218e-35
2961 1 0.000635 -0.00537226 -0.004445 -0.007776 1.44604e-16 -5.9629e-17 2.16e-11 5.26426e-25 3.74932e-35
3048 1 0.000635 -0.00427241 -0.00381 -0.007776 -1.03291e-16 0 2.16e-11 0 1.68073e-35
3134 1 0.000635 -0.00317256 -0.004445 -0.007776 3.09963e-17 -5.36693e-17 2.16e-11 1.57928e-24 8.40366e-36
3221 1 0.000635 -0.0020727 -0.00381 -0.007776 -6.77626e-21 0 2.16e-11 2.10571e-24 0
3307 1 0.000635 -0.000972852 -0.004445 -0.007776 0 -4.77053e-17 2.16e-11 1.05285e-24 5.17148e-36
3394 1 0.000635 0.000127 -0.00381 -0.007776 0 0 2.16e-11 1.05285e-24 0
3480 1 0.000635 0.00122685 -0.004445 -0.007776 0 -4.77053e-17 2.16e-11 1.05285e-24 5.17148e-36
3567 1 0.000635 0.0023267 -0.00381 -0.007776 0 0 2.16e-11 2.10571e-24 0
3653 1 0.000635 0.00342656 -0.004445 -0.007776 3.09811e-17 -5.36701e-17 2.16e-11 1.05285e-24 8.40366e-36
3740 1 0.000635 0.00452641 -0.00381 -0.007776 4.13217e-17 7.70372e-34 2.16e-11 0 1.29287e-35
3826 1 0.000635 0.00562626 -0.004445 -0.007776 -1.44597e-16 -5.9629e-17 2.16e-11 5.26426e-25 3.74932e-35
3912 1 0.000635 0.00672611 -0.00381 -0.007776 8.26298e-17 0 2.16e-11 1.05285e-24 2.06859e-35
3997 1 0.000635 0.00782597 -0.004445 -0.007776 -3.38813e-21 -4.77061e-17 2.16e-11 1.05285e-24 5.17148e-36
4083 1 0.000635 0.00892582 -0.00381 -0.007776 -6.77626e-21 0 2.16e-11 1.05285e-24 0
4168 1 0.000635 0.0100257 -0.004445 -0.007776 7.97915e-09 1.38203e-08 -4.65083e-07 4.09456e-12 6.01185e-35
4254 1 0.000635 0.0111255 -0.00381 -0.007776 4.68701e-08 -4.25115e-09 -2.9755e-06 8.47604e-11 4.65433e-35
4338 1 0.000635 0.0122254 -0.004445 -0.007776 7.05717e-05 -5.70112e-05 1.17841e-05 7.52067e-10 6.97761e-11
4423 1 0.000635 0.0133177 -0.00380887 -0.00763936 9.41778e-13 -6.8547e-11 2.36578e-10 4.98641e-10 7.0263e-11
4507 1 0.000635 0.0143887 -0.00444145 -0.00738221 3.35966e-10 -2.12489e-10 -1.13074e-09 8.20935e-10 3.47907e-11
4591 1 0.000635 0.0154609 -0.0038071 -0.00713883 1.32845e-09 -2.6482e-10 -3.97245e-09 4.93807e-10 2.46944e-11
2198 1 0.000635 -0.0151646 -0.00253923 -0.00695284 1.66899e-09 -9.46488e-12 5.46829e-09 3.75822e-12 6.54428e-12
2281 1 0.000635 -0.0141116 -0.00317403 -0.00727068 3.40127e-09 -6.21267e-11 1.18345e-08 1.96689e-11 1.14367e-11
2366 1 0.000635 -0.0130502 -0.00253964 -0.00756108 3.21369e-10 -6.89236e-12 1.10274e-09 1.57419e-10 5.13293e-12
2450 1 0.000635 -0.0119714 -0.003175 -0.007776 -1.71736e-05 9.71262e-06 9.68864e-06 1.53789e-10 1.84252e-12
2535 1 0.000635 -0.0108715 -0.00254 -0.007776 -9.01728e-08 -1.98841e-09 -3.79607e-06 1.37494e-10 6.33506e-35
2620 1 0.000635 -0.00977167 -0.003175 -0.007776 -1.3427e-16 4.1748e-17 2.16e-11 5.26426e-25 5.81792e-35
2706 1 0.000635 -0.00867182 -0.00254 -0.007776 -7.2301e-17 -5.97417e-18 2.16e-11 0 1.61609e-35
2791 1 0.000635 -0.00757197 -0.003175 -0.007776 1.44602e-16 4.77053e-17 2.16e-11 5.26426e-25 3.55539e-35
2877 1 0.000635 -0.00647211 -0.00254 -0.007776 -1.44605e-16 -1.19365e-17 2.16e-11 0 3.23218e-35
2962 1 0.000635 -0.00537226 -0.003175 -0.007776 1.44604e-16 4.7707e-17 2.16e-11 0 3.55539e-35
3049 1 0.000635 -0.00427241 -0.00254 -0.007776 -1.03284e-16 -1.19373e-17 2.16e-11 5.26426e-25 1.93931e-35
3135 1 0.000635 -0.00317256 -0.003175 -0.007776 3.09963e-17 4.17472e-17 2.16e-11 1.05285e-24 6.46435e-36
3222 1 0.000635 -0.0020727 -0.00254 -0.007776 0 -1.43996e-20 2.16e-11 0 0
3308 1 0.000635 -0.000972852 -0.003175 -0.007776 0 3.57823e-17 2.16e-11 1.05285e-24 3.23218e-36
3395 1 0.000635 0.000127 -0.00254 -0.007776 0 -1.35525e-20 2.16e-11 0 0
3481 1 0.000635 0.00122685 -0.003175 -0.007776 0 3.57823e-17 2.16e-11 1.05285e-24 3.23218e-36
3568 1 0.000635 0.0023267 -0.00254 -0.007776 -6.77626e-21 -1.35525e-20 2.16e-11 0 0
3654 1 0.000635 0.00342656 -0.003175 -0.007776 3.09777e-17 4.17463e-17 2.16e-11 1.05285e-24 6.46435e-36
3741 1 0.000635 0.00452641 -0.00254 -0.007776 4.13115e-17 -1.19382e-17 2.16e-11 5.26426e-25 1.93931e-35
3827 1 0.000635 0.00562626 -0.003175 -0.007776 -1.44595e-16 4.77053e-17 2.16e-11 5.26426e-25 3.55539e-35
3913 1 0.000635 0.00672611 -0.00254 -0.007776 7.23095e-17 -5.97502e-18 2.16e-11 0 1.61609e-35
3998 1 0.000635 0.00782597 -0.003175 -0.007776 0 3.57823e-17 2.16e-11 1.05285e-24 3.23218e-36
4084 1 0.000635 0.00892582 -0.00254 -0.007776 -8.47033e-21 -1.27055e-20 2.16e-11 0 0
4169 1 0.000635 0.0100257 -0.003175 -0.007776 1.3427e-16 4.1748e-17 2.16e-11 5.26426e-25 5.81792e-35
4255 1 0.000635 0.0111255 -0.00254 -0.007776 3.96257e-08 -2.63733e-08 -2.655e-06 6.74914e-11 6.33506e-35
4339 1 0.000635 0.0122254 -0.003175 -0.007776 5.47321e-05 1.49064e-05 1.05106e-05 9.51778e-11 1.12786e-11
4424 1 0.000635 0.013315 -0.00253943 -0.00762184 6.4976e-10 -4.51607e-12 -3.69591e-09 1.04709e-10 2.44699e-11
4508 1 0.000635 0.0143998 -0.00317334 -0.00743361 -1.39735e-10 -1.37363e-10 1.07563e-09 5.99024e-10 8.31219e-11
4592 1 0.000635 0.0154703 -0.00253857 -0.007174 5.27687e-10 -1.8787e-11 -2.2083e-09 2.6914e-10 6.62557e-11
2199 1 0.000635 -0.0151635 -0.00126963 -0.00694994 -4.59194e-10 2.02067e-11 -1.74052e-09 3.19277e-12 5.78773e-12
2282 1 0.000635 -0.0141111 -0.00190449 -0.00727012 1.29976e-09 -8.16989e-12 4.34746e-09 2.23581e-11 6.60992e-12
2367 1 0.000635 -0.0130508 -0.00126984 -0.00756386 -9.3839e-12 -2.57429e-11 -3.80176e-10 1.56052e-10 2.9157e-12
2451 1 0.000635 -0.0119714 -0.001905 -0.007776 -1.1703e-05 7.08911e-06 8.48726e-06 1.54043e-10 9.20987e-13
2536 1 0.000635 -0.0108715 -0.00127 -0.007776 -8.96221e-08 2.34923e-10 -3.75964e-06 1.34831e-10 6.33506e-35
2621 1 0.000635 -0.00977167 -0.001905 -0.007776 -1.44592e-16 -1.19229e-17 2.16e-11 5.26426e-25 6.39971e-35
2707 1 0.000635 -0.00867182 -0.00127 -0.007776 -7.2301e-17 5.96909e-18 2.16e-11 5.26426e-25 1.61609e-35
2792 1 0.000635 -0.00757197 -0.001905 -0.007776 1.44605e-16 -1.19229e-17 2.16e-11 0 3.29682e-35
2878 1 0.000635 -0.00647211 -0.00127 -0.007776 -1.44605e-16 1.19331e-17 2.16e-11 0 3.23218e-35
2963 1 0.000635 -0.00537226 -0.001905 -0.007776 1.44602e-16 -1.19246e-17 2.16e-11 0 3.29682e-35
3050 1 0.000635 -0.00427241 -0.00127 -0.007776 -1.13613e-16 5.96993e-18 2.16e-11 0 2.13324e-35
3136 1 0.000635 -0.00317256 -0.001905 -0.007776 4.13081e-17 -1.19229e-17 2.16e-11 0 5.81792e-36
3223 1 0.000635 -0.0020727 -0.00127 -0.007776 0 7.6233e-21 2.16e-11 0 0
3309 1 0.000635 -0.000972852 -0.001905 -0.007776 0 -1.19229e-17 2.16e-11 0 6.46435e-37
3396 1 0.000635 0.000127 -0.00127 -0.007776 0 6.77626e-21 2.16e-11 0 0
3482 1 0.000635 0.00122685 -0.001905 -0.007776 0 -1.19229e-17 2.16e-11 0 6.46435e-37
3569 1 0.000635 0.0023267 -0.00127 -0.007776 -6.77626e-21 6.77626e-21 2.16e-11 0 0
3655 1 0.000635 0.00342656 -0.001905 -0.007776 2.06608e-17 -1.19229e-17 2.16e-11 0 1.93931e-36
3742 1 0.000635 0.00452641 -0.00127 -0.007776 4.13149e-17 1.19331e-17 2.16e-11 5.26426e-25 1.93931e-35
3828 1 0.000635 0.00562626 -0.001905 -0.007776 -1.44599e-16 -1.19229e-17 2.16e-11 0 3.29682e-35
3914 1 0.000635 0.00672611 -0.00127 -0.007776 7.23078e-17 5.96909e-18 2.16e-11 5.26426e-25 1.61609e-35
3999 1 0.000635 0.00782597 -0.001905 -0.007776 -6.77626e-21 -1.19229e-17 2.16e-11 5.26426e-25 6.46435e-37
4085 1 0.000635 0.00892582 -0.00127 -0.007776 -6.77626e-21 6.77626e-21 2.16e-11 0 0
4170 1 0.000635 0.0100257 -0.001905 -0.007776 1.44599e-16 -1.19229e-17 2.16e-11 0 6.39971e-35
4256 1 0.000635 0.0111255 -0.00127 -0.007776 4.78815e-08 -1.26289e-08 -2.83005e-06 7.61923e-11 6.33506e-35
4340 1 0.000635 0.0122254 -0.001905 -0.007776 3.02016e-05 2.52439e-06 9.20483e-06 8.31037e-11 2.93152e-12
4425 1 0.000635 0.0133132 -0.00126978 -0.00761152 2.03054e-10 -1.97491e-11 -1.14166e-09 9.11316e-11 6.04242e-12
4509 1 0.000635 0.0143935 -0.00190428 -0.00740211 9.5803e-10 1.48332e-11 -4.64364e-09 3.6509e-11 2.08596e-11
4593 1 0.000635 0.015463 -0.00126951 -0.00714229 4.30205e-10 2.75379e-11 -2.17644e-09 2.01051e-11 1.52416e-11
2283 1 0.000635 -0.0141114 -0.000634842 -0.00727172 1.53121e-09 2.16121e-11 4.6661e-09 2.31725e-11 5.27197e-12
2452 1 0.000635 -0.0119714 -0.000635 -0.007776 -1.27557e-05 2.19123e-06 8.555e-06 1.53661e-10 5.89997e-13
2622 1 0.000635 -0.00977167 -0.000635 -0.007776 -1.44599e-16 -8.47033e-21 2.16e-11 0 6.33506e-35
2793 1 0.000635 -0.00757197 -0.000635 -0.007776 1.44604e-16 -1.19339e-17 2.16e-11 5.26426e-25 3.23218e-35
2964 1 0.000635 -0.00537226 -0.000635 -0.007776 1.44604e-16 -1.19365e-17 2.16e-11 0 3.23218e-35
3137 1 0.000635 -0.00317256 -0.000635 -0.007776 4.13183e-17 -8.47033e-21 2.16e-11 0 5.17148e-36
3310 1 0.000635 -0.000972852 -0.000635 -0.007776 0 -8.47033e-21 2.16e-11 0 0
3483 1 0.000635 0.00122685 -0.000635 -0.007776 0 -8.47033e-21 2.16e-11 0 0
3656 1 0.000635 0.00342656 -0.000635 -0.007776 3.09811e-17 -5.97078e-18 2.16e-11 5.26426e-25 3.23218e-36
3829 1 0.000635 0.00562626 -0.000635 -0.007776 -1.44597e-16 -1.19339e-17 2.16e-11 5.26426e-25 3.23218e-35
4000 1 0.000635 0.00782597 -0.000635 -0.007776 0 -8.47033e-21 2.16e-11 0 0
4171 1 0.000635 0.0100257 -0.000635 -0.007776 1.44599e-16 -8.47033e-21 2.16e-11 0 6.33506e-35
4341 1 0.000635 0.0122254 -0.000635 -0.007776 1.51207e-05 7.03141e-07 7.23895e-06 8.95806e-11 7.41016e-13
4510 1 0.000635 0.0143893 -0.000634828 -0.00738253 -1.40368e-10 -2.40354e-11 4.29894e-10 1.53045e-11 6.53998e-12
2200 1 0.000635 -0.0151634 -2.68529e-15 -0.00694987 1.99393e-09 8.70965e-14 6.06295e-09 3.12395e-12 5.6285e-12
2284 1 0.000635 -0.0141114 0.000634842 -0.00727172 1.53122e-09 -2.15692e-11 4.66613e-09 2.31725e-11 5.27197e-12
2368 1 0.000635 -0.0130509 -1.02538e-15 -0.00756459 -1.26086e-09 1.22153e-13 -5.90496e-09 1.55834e-10 2.50094e-12
2453 1 0.000635 -0.0119714 0.000635 -0.007776 -1.27557e-05 -2.19123e-06 8.555e-06 1.53661e-10 5.89997e-13
2537 1 0.000635 -0.0108715 0 -0.007776 -8.89235e-08 2.33087e-17 -3.74152e-06 1.33514e-10 6.33506e-35
2623 1 0.000635 -0.00977167 0.000635 -0.007776 -1.44599e-16 -3.38813e-21 2.16e-11 0 6.33506e-35
2708 1 0.000635 -0.00867182 0 -0.007776 -8.26247e-17 5.92923e-21 2.16e-11 0 2.06859e-35
2794 1 0.000635 -0.00757197 0.000635 -0.007776 1.44602e-16 -3.38813e-21 2.16e-11 0 3.23218e-35