ITEM: TIMESTEP
1800000
ITEM: NUMBER OF ATOMS
6793
ITEM: BOX BOUNDS ff ff ff
-8.9999999999999997e-02 8.9999999999999997e-02
-8.9999999999999997e-02 8.9999999999999997e-02
-4.0000000000000001e-02 4.0000000000000001e-02
ITEM: ATOMS id type radius x y z fx fy fz c_bendingE c_stretchingE
3385 1 0.000635 0.000115317 -0.0151781 -0.0189297 4.4105e-10 4.10689e-10 -1.48035e-10 3.53329e-09 6.6499e-11
3471 1 0.000635 0.0011552 -0.015675 -0.0183963 -9.98628e-10 4.19709e-09 6.88025e-09 3.47743e-09 1.60199e-10
3558 1 0.000635 0.00223975 -0.0150162 -0.0183954 1.50196e-09 6.63087e-11 -2.61211e-10 2.81446e-10 4.94633e-11
3213 1 0.000635 -0.00207197 -0.0139547 -0.0192527 -3.37782e-10 -5.76764e-11 -4.46098e-10 5.8209e-09 3.61277e-10
3299 1 0.000635 -0.000974535 -0.0145873 -0.0191997 -2.7569e-11 2.92364e-10 -6.50487e-10 5.36477e-09 1.04813e-10
3386 1 0.000635 0.000125662 -0.0139633 -0.0193041 7.39361e-11 -4.04048e-10 -3.34376e-09 3.91138e-09 4.18319e-11
3472 1 0.000635 0.0012048 -0.0145282 -0.0189452 -2.22367e-09 5.22276e-09 1.19531e-08 1.86495e-09 1.70849e-10
3559 1 0.000635 0.00228101 -0.0138565 -0.0189129 3.66559e-10 1.63575e-09 3.59053e-09 7.83013e-10 2.11455e-10
3645 1 0.000635 0.00333102 -0.0143686 -0.018417 1.20166e-09 4.53712e-11 -4.5538e-10 1.93225e-10 4.88158e-11
3732 1 0.000635 0.00445586 -0.0138117 -0.0186026 3.93545e-10 1.94381e-09 2.75183e-09 2.00227e-10 7.19964e-11
3041 1 0.000635 -0.00426693 -0.0126866 -0.0192644 4.00446e-11 -1.12491e-10 -5.4761e-10 3.75541e-09 1.35014e-10
3127 1 0.000635 -0.00316882 -0.0133203 -0.0192621 -3.29968e-11 9.08565e-11 4.15775e-10 4.44852e-09 3.47814e-10
3214 1 0.000635 -0.0020727 -0.0127 -0.01944 -9.53683e-05 1.78534e-05 -7.40398e-06 5.0259e-09 7.93993e-11
3300 1 0.000635 -0.000973375 -0.0133355 -0.0194147 -6.43653e-11 2.67966e-10 1.63577e-09 3.93762e-09 5.29392e-11
3387 1 0.000635 0.000127 -0.0127 -0.01944 -5.78229e-05 -5.17866e-05 7.06081e-07 4.18603e-10 1.8039e-11
3473 1 0.000635 0.0012257 -0.0133338 -0.0193824 -2.38831e-10 1.38707e-09 5.67505e-09 5.31169e-10 1.64431e-10
3560 1 0.000635 0.0023267 -0.0127 -0.01944 7.98076e-05 -0.000225472 0.000120861 6.65046e-10 2.64969e-10
3646 1 0.000635 0.00339774 -0.0132747 -0.0190596 3.48809e-10 7.77341e-10 1.17788e-09 6.48653e-10 3.20457e-10
3733 1 0.000635 0.00450784 -0.0126639 -0.0191426 9.30146e-10 -8.89985e-10 -3.26898e-09 4.26601e-10 4.82462e-11
3819 1 0.000635 0.00557208 -0.0132197 -0.0187255 8.07687e-10 -2.71103e-10 -5.36939e-10 1.59013e-10 2.98924e-11
3905 1 0.000635 0.00668383 -0.012614 -0.0188221 4.71582e-10 6.59738e-10 2.06888e-09 1.75371e-10 5.22621e-12
3990 1 0.000635 0.00774687 -0.0131681 -0.0184024 3.54002e-10 1.35545e-09 3.52864e-09 2.006e-09 1.23181e-10
4076 1 0.000635 0.00885583 -0.012555 -0.018488 8.78043e-10 -1.09208e-10 7.85156e-10 3.62553e-09 8.42519e-12
2784 1 0.000635 -0.00734813 -0.0116851 -0.0183959 -2.83133e-10 -9.2415e-10 -4.57146e-10 2.84568e-09 5.57597e-11
2870 1 0.000635 -0.00646429 -0.0114183 -0.0192666 -2.93456e-10 -3.27734e-11 -9.59216e-10 2.94084e-09 5.80028e-11
2955 1 0.000635 -0.00536546 -0.0120526 -0.0192658 -3.33586e-10 -2.74493e-10 -2.03314e-09 3.2753e-09 6.29395e-11
3042 1 0.000635 -0.00427241 -0.01143 -0.01944 4.88162e-07 6.23367e-05 -1.82074e-05 2.95217e-09 1.87556e-11
3128 1 0.000635 -0.00317256 -0.012065 -0.01944 -4.04647e-05 9.29147e-05 -2.08184e-05 3.68643e-09 7.22868e-11
3215 1 0.000635 -0.0020727 -0.01143 -0.01944 3.24788e-08 -6.75551e-08 -3.20075e-06 9.7528e-11 5.17148e-36
3301 1 0.000635 -0.000972852 -0.012065 -0.01944 2.59324e-08 -4.00874e-05 -2.50817e-06 1.05975e-10 7.26649e-12
3388 1 0.000635 0.000127 -0.01143 -0.01944 1.17982e-08 0 -1.19838e-06 2.7221e-11 5.17148e-36
3474 1 0.000635 0.00122685 -0.012065 -0.01944 -1.96662e-08 -8.02442e-06 -5.56996e-06 4.44417e-10 2.63649e-13
3561 1 0.000635 0.0023267 -0.01143 -0.01944 3.05392e-07 -1.67989e-07 -7.2622e-06 5.62079e-10 5.17148e-36
3647 1 0.000635 0.00342656 -0.012065 -0.01944 6.2719e-05 5.03262e-05 -1.73612e-06 5.03811e-10 5.84457e-11
3734 1 0.000635 0.00452641 -0.01143 -0.01944 2.43047e-05 2.32742e-05 2.69796e-06 3.47449e-10 9.96867e-12
3820 1 0.000635 0.00561327 -0.0120408 -0.0191953 -1.88007e-10 1.57662e-09 5.29712e-09 3.26899e-10 8.81666e-12
3906 1 0.000635 0.00671671 -0.011413 -0.0192337 2.69889e-10 3.49859e-10 1.43026e-09 2.71408e-10 2.65009e-12
3991 1 0.000635 0.00779414 -0.0120043 -0.0189135 4.94211e-10 1.99265e-10 1.43745e-09 2.76404e-09 8.77612e-11
2614 1 0.000635 -0.00960492 -0.0105336 -0.0185034 8.10643e-10 5.2771e-10 -7.19357e-11 2.71359e-09 3.09632e-10
2699 1 0.000635 -0.00847671 -0.0111082 -0.018447 4.4377e-10 3.7354e-10 1.11062e-10 2.71559e-09 1.62429e-10
2785 1 0.000635 -0.00756317 -0.0107837 -0.0192654 1.74885e-10 1.02852e-10 2.71142e-10 2.70657e-09 8.49503e-11
2956 1 0.000635 -0.00537226 -0.010795 -0.01944 3.11629e-05 3.7509e-05 -1.60476e-05 2.4478e-09 8.91113e-12
3129 1 0.000635 -0.00317256 -0.010795 -0.01944 -5.98606e-10 -5.61368e-08 -3.10788e-06 9.18232e-11 6.46435e-36
3302 1 0.000635 -0.000972852 -0.010795 -0.01944 4.60504e-09 -1.69407e-21 -2.22889e-07 9.39503e-13 5.17148e-36
3475 1 0.000635 0.00122685 -0.010795 -0.01944 1.01215e-08 -1.69407e-21 -5.08356e-07 4.8885e-12 5.17148e-36
3648 1 0.000635 0.00342656 -0.010795 -0.01944 1.90627e-07 -1.10624e-07 -5.51637e-06 3.0862e-10 1.0343e-35
3821 1 0.000635 0.00562626 -0.010795 -0.01944 1.15495e-05 1.27833e-05 3.25548e-06 2.54834e-10 2.53626e-12
3992 1 0.000635 0.00781957 -0.0107835 -0.0192675 -1.27549e-10 9.57456e-10 4.63269e-09 1.36912e-09 6.18415e-11
4077 1 0.000635 0.00889912 -0.0113793 -0.0189658 2.83721e-10 1.54409e-10 1.17968e-09 2.65716e-09 1.411e-11
4163 1 0.000635 0.00989243 -0.0106574 -0.0186402 -1.04037e-09 1.01897e-09 1.33752e-09 3.02661e-09 2.05438e-11
2445 1 0.000635 -0.011861 -0.00939021 -0.0186358 8.79223e-10 1.07432e-09 -4.7322e-10 3.46766e-09 3.95246e-10
2529 1 0.000635 -0.0107333 -0.00996212 -0.0185668 -1.3299e-11 -1.68216e-09 -1.4409e-09 2.99325e-09 4.11496e-10
2615 1 0.000635 -0.00975901 -0.00951161 -0.0192431 -8.2737e-11 -4.75128e-10 -1.34709e-09 2.65949e-09 2.51519e-10
2700 1 0.000635 -0.00866167 -0.0101483 -0.0192592 8.05292e-11 -2.86986e-10 -1.05509e-09 2.58689e-09 1.3363e-10
2786 1 0.000635 -0.00757197 -0.009525 -0.01944 7.79974e-05 3.4916e-06 -1.30932e-05 1.65439e-09 4.61462e-11
2871 1 0.000635 -0.00647211 -0.01016 -0.01944 5.56123e-05 1.83042e-05 -1.42847e-05 2.03675e-09 2.09129e-11
2957 1 0.000635 -0.00537226 -0.009525 -0.01944 -3.60109e-08 -4.15029e-08 -3.07798e-06 9.00579e-11 3.74932e-35
3043 1 0.000635 -0.00427241 -0.01016 -0.01944 -2.09493e-08 -4.74742e-08 -3.0797e-06 9.01521e-11 2.71503e-35
3130 1 0.000635 -0.00317256 -0.009525 -0.01944 2.0671e-17 0 2.16e-11 1.05285e-24 6.46435e-36
3216 1 0.000635 -0.0020727 -0.01016 -0.01944 -6.77626e-21 0 2.16e-11 0 5.17148e-36
3303 1 0.000635 -0.000972852 -0.009525 -0.01944 0 0 2.16e-11 0 5.17148e-36
3389 1 0.000635 0.000127 -0.01016 -0.01944 0 0 2.16e-11 0 5.17148e-36
3476 1 0.000635 0.00122685 -0.009525 -0.01944 0 0 2.16e-11 0 5.17148e-36
3562 1 0.000635 0.0023267 -0.01016 -0.01944 0 0 2.16e-11 0 5.17148e-36
3649 1 0.000635 0.00342656 -0.009525 -0.01944 4.13115e-17 0 2.16e-11 0 1.0343e-35
3735 1 0.000635 0.00452641 -0.01016 -0.01944 1.19511e-07 -7.68202e-08 -4.44297e-06 1.95569e-10 3.10289e-35
3822 1 0.000635 0.00562626 -0.009525 -0.01944 8.47645e-08 -5.17286e-08 -3.67969e-06 1.33148e-10 3.74932e-35
3907 1 0.000635 0.00672611 -0.01016 -0.01944 2.32253e-05 -5.69073e-06 6.07265e-06 1.99762e-10 3.56385e-12
3993 1 0.000635 0.00782597 -0.009525 -0.01944 2.14545e-05 -2.71136e-05 5.02565e-06 5.11474e-10 3.75436e-12
4078 1 0.000635 0.00892106 -0.0101487 -0.0192793 5.77793e-10 -4.74695e-10 -2.68392e-09 2.65487e-09 1.47078e-10
4164 1 0.000635 0.00999806 -0.00948838 -0.0191257 2.32827e-10 -3.9938e-11 -5.07892e-10 2.39509e-09 3.14008e-10
2277 1 0.000635 -0.0141118 -0.00823053 -0.0187684 6.86224e-10 -1.48959e-09 1.97889e-09 5.72211e-09 1.32741e-10
2361 1 0.000635 -0.0129877 -0.00881473 -0.0187055 1.59845e-09 1.20205e-09 9.78931e-10 7.18071e-09 1.9511e-10
2446 1 0.000635 -0.011956 -0.00824557 -0.0191791 -1.34042e-09 -2.74061e-09 -1.1144e-08 4.12e-09 3.7629e-11
2530 1 0.000635 -0.0108563 -0.00887715 -0.019217 1.25931e-09 1.24938e-09 2.98928e-09 3.07989e-09 1.12119e-10
2616 1 0.000635 -0.00977167 -0.008255 -0.01944 -2.51474e-05 -0.000100864 1.86532e-05 8.92741e-10 5.80869e-11
2701 1 0.000635 -0.00867182 -0.00889 -0.01944 0.000106065 -8.27224e-06 -1.35811e-05 1.27023e-09 9.20507e-11
2787 1 0.000635 -0.00757197 -0.008255 -0.01944 -5.43182e-08 -4.02631e-08 -3.27855e-06 1.02664e-10 4.0079e-35
2872 1 0.000635 -0.00647211 -0.00889 -0.01944 -4.65522e-08 -3.88256e-08 -3.1257e-06 9.29442e-11 3.74932e-35
2958 1 0.000635 -0.00537226 -0.008255 -0.01944 1.44607e-16 -7.15799e-17 2.16e-11 5.26426e-25 4.0079e-35
3044 1 0.000635 -0.00427241 -0.00889 -0.01944 -1.03289e-16 -4.76841e-17 2.16e-11 1.05285e-24 2.71503e-35
3131 1 0.000635 -0.00317256 -0.008255 -0.01944 3.09912e-17 -7.75431e-17 2.16e-11 5.26426e-25 1.87466e-35
3217 1 0.000635 -0.0020727 -0.00889 -0.01944 -3.38813e-21 -4.76866e-17 2.16e-11 0 5.17148e-36
3304 1 0.000635 -0.000972852 -0.008255 -0.01944 0 -7.15833e-17 2.16e-11 0 1.0343e-35
3390 1 0.000635 0.000127 -0.00889 -0.01944 0 -4.76866e-17 2.16e-11 0 5.17148e-36
3477 1 0.000635 0.00122685 -0.008255 -0.01944 0 -7.15833e-17 2.16e-11 0 1.0343e-35
3563 1 0.000635 0.0023267 -0.00889 -0.01944 0 -4.76858e-17 2.16e-11 0 5.17148e-36
3650 1 0.000635 0.00342656 -0.008255 -0.01944 4.13098e-17 -7.15825e-17 2.16e-11 0 1.0343e-35
3736 1 0.000635 0.00452641 -0.00889 -0.01944 4.13115e-17 -4.76841e-17 2.16e-11 0 3.10289e-35
3823 1 0.000635 0.00562626 -0.008255 -0.01944 -1.446e-16 -7.15791e-17 2.16e-11 0 4.0079e-35
3908 1 0.000635 0.00672611 -0.00889 -0.01944 5.01381e-08 -5.67656e-08 -3.23663e-06 1.01301e-10 1.68073e-35
3994 1 0.000635 0.00782597 -0.008255 -0.01944 -2.27586e-08 -1.37038e-07 -4.29818e-06 1.9254e-10 1.0343e-35
4079 1 0.000635 0.00892582 -0.00889 -0.01944 -0.000115606 0.000124503 -4.33044e-05 1.3056e-09 1.03355e-10
4165 1 0.000635 0.0100257 -0.008255 -0.01944 0.000480781 9.16888e-05 0.000149129 1.87357e-09 1.44388e-09
4250 1 0.000635 0.010965 -0.00875749 -0.0187473 -2.16929e-09 1.49458e-09 3.0062e-09 2.53827e-09 6.35416e-11
2278 1 0.000635 -0.0140696 -0.00696523 -0.0186977 -1.23671e-09 -1.26036e-09 -2.18631e-09 4.65632e-09 1.68767e-10
2362 1 0.000635 -0.013053 -0.00761052 -0.0191024 -1.07716e-09 -1.10309e-09 -4.62274e-09 3.40199e-09 1.24186e-10
2447 1 0.000635 -0.0119676 -0.006984 -0.0193218 7.37748e-10 -9.28026e-10 2.83932e-09 4.9514e-10 1.24928e-10
2531 1 0.000635 -0.0108709 -0.00761971 -0.0193931 -1.12928e-09 -1.09176e-09 -1.40451e-08 6.05495e-10 1.9949e-11
2617 1 0.000635 -0.00977167 -0.006985 -0.01944 -6.79491e-06 -3.86665e-06 -2.5267e-06 1.05496e-10 2.68743e-13
2702 1 0.000635 -0.00867182 -0.00762 -0.01944 -7.39897e-08 -2.66656e-08 -3.56021e-06 1.22075e-10 2.9736e-35
2788 1 0.000635 -0.00757197 -0.006985 -0.01944 1.44605e-16 -2.38958e-17 2.16e-11 0 4.0079e-35
2873 1 0.000635 -0.00647211 -0.00762 -0.01944 -1.44609e-16 2.38967e-17 2.16e-11 0 4.0079e-35
2959 1 0.000635 -0.00537226 -0.006985 -0.01944 1.44605e-16 -2.38958e-17 2.16e-11 0 4.0079e-35
3045 1 0.000635 -0.00427241 -0.00762 -0.01944 -1.13623e-16 2.98573e-17 2.16e-11 0 2.90896e-35
3132 1 0.000635 -0.00317256 -0.006985 -0.01944 3.09912e-17 -2.98573e-17 2.16e-11 0 1.87466e-35
3218 1 0.000635 -0.0020727 -0.00762 -0.01944 -1.69407e-21 2.38958e-17 2.16e-11 0 1.0343e-35
3305 1 0.000635 -0.000972852 -0.006985 -0.01944 0 -2.38967e-17 2.16e-11 0 1.0343e-35
3391 1 0.000635 0.000127 -0.00762 -0.01944 0 2.38967e-17 2.16e-11 0 1.0343e-35
3478 1 0.000635 0.00122685 -0.006985 -0.01944 0 -2.38967e-17 2.16e-11 0 1.0343e-35
3564 1 0.000635 0.0023267 -0.00762 -0.01944 0 2.38967e-17 2.16e-11 0 1.0343e-35
3651 1 0.000635 0.00342656 -0.006985 -0.01944 4.13081e-17 -2.38967e-17 2.16e-11 0 1.0343e-35
3737 1 0.000635 0.00452641 -0.00762 -0.01944 4.13217e-17 2.38958e-17 2.16e-11 0 2.06859e-35
3824 1 0.000635 0.00562626 -0.006985 -0.01944 -1.44599e-16 -2.3895e-17 2.16e-11 0 4.0079e-35
3909 1 0.000635 0.00672611 -0.00762 -0.01944 6.19757e-17 2.38958e-17 2.16e-11 0 2.9736e-35
3995 1 0.000635 0.00782597 -0.006985 -0.01944 -6.77626e-21 -2.38967e-17 2.16e-11 0 1.0343e-35
4080 1 0.000635 0.00892582 -0.00762 -0.01944 -1.09987e-07 -2.63187e-07 -7.52497e-06 8.06892e-10 1.0343e-35
4166 1 0.000635 0.0100257 -0.006985 -0.01944 -0.000124089 7.06542e-05 -2.82365e-05 1.44984e-09 9.59848e-11
4251 1 0.000635 0.0111149 -0.00760758 -0.0192609 -2.92225e-10 1.97858e-10 1.13974e-09 2.31196e-09 2.27069e-09
4336 1 0.000635 0.0121386 -0.00691513 -0.0189363 -2.22139e-10 -1.98224e-10 1.05315e-09 2.83004e-09 1.91961e-09
2279 1 0.000635 -0.0140187 -0.00570039 -0.0186144 -3.27953e-10 -9.57777e-10 6.4701e-10 3.12083e-10 8.37438e-11
2363 1 0.000635 -0.0130416 -0.00634151 -0.0191109 3.02615e-09 -1.07191e-09 9.86243e-09 5.97e-10 1.32749e-10
2448 1 0.000635 -0.0119704 -0.00571576 -0.0193917 6.70642e-10 -2.54602e-10 4.69026e-09 3.91335e-10 1.41605e-10
2532 1 0.000635 -0.0108715 -0.00635 -0.01944 -6.93391e-05 -8.75883e-05 8.9902e-06 1.6301e-10 4.76843e-11
2618 1 0.000635 -0.00977167 -0.005715 -0.01944 -4.49262e-09 7.78144e-09 -1.04105e-06 2.05279e-11 6.85221e-35
2703 1 0.000635 -0.00867182 -0.00635 -0.01944 -3.57472e-10 6.19159e-10 -4.13131e-07 3.22684e-12 2.9736e-35
2789 1 0.000635 -0.00757197 -0.005715 -0.01944 1.44602e-16 4.76832e-17 2.16e-11 0 3.74932e-35
2874 1 0.000635 -0.00647211 -0.00635 -0.01944 -1.44609e-16 7.15816e-17 2.16e-11 0 4.0079e-35
2960 1 0.000635 -0.00537226 -0.005715 -0.01944 1.44604e-16 4.76841e-17 2.16e-11 5.26426e-25 3.74932e-35
3046 1 0.000635 -0.00427241 -0.00635 -0.01944 -1.13621e-16 7.75431e-17 2.16e-11 0 2.90896e-35
3133 1 0.000635 -0.00317256 -0.005715 -0.01944 2.0671e-17 4.76858e-17 2.16e-11 5.26426e-25 6.46435e-36
3219 1 0.000635 -0.0020727 -0.00635 -0.01944 -5.0822e-21 7.15842e-17 2.16e-11 0 1.0343e-35
3306 1 0.000635 -0.000972852 -0.005715 -0.01944 0 4.76866e-17 2.16e-11 0 5.17148e-36
3392 1 0.000635 0.000127 -0.00635 -0.01944 0 7.1585e-17 2.16e-11 0 1.0343e-35
3479 1 0.000635 0.00122685 -0.005715 -0.01944 0 4.76866e-17 2.16e-11 0 5.17148e-36
3565 1 0.000635 0.0023267 -0.00635 -0.01944 0 7.15842e-17 2.16e-11 0 1.0343e-35
3652 1 0.000635 0.00342656 -0.005715 -0.01944 4.13098e-17 4.76858e-17 2.16e-11 0 1.0343e-35
3738 1 0.000635 0.00452641 -0.00635 -0.01944 4.13183e-17 7.15816e-17 2.16e-11 0 2.06859e-35
3825 1 0.000635 0.00562626 -0.005715 -0.01944 -1.44597e-16 4.76841e-17 2.16e-11 0 3.74932e-35
3910 1 0.000635 0.00672611 -0.00635 -0.01944 6.19774e-17 7.15825e-17 2.16e-11 0 2.9736e-35
3996 1 0.000635 0.00782597 -0.005715 -0.01944 -6.77626e-21 4.76849e-17 2.16e-11 0 5.17148e-36
4081 1 0.000635 0.00892582 -0.00635 -0.01944 -2.41761e-08 -4.18742e-08 -1.58274e-06 4.76247e-11 1.0343e-35
4167 1 0.000635 0.0100257 -0.005715 -0.01944 -7.57172e-08 -1.31146e-07 -4.46106e-06 3.92789e-10 6.85221e-35
4252 1 0.000635 0.0111255 -0.00635 -0.01944 -0.000453027 -1.27829e-05 -0.000127249 2.10403e-09 6.87699e-10
4337 1 0.000635 0.01222 -0.0057185 -0.019373 -6.07994e-10 5.27407e-10 5.04764e-09 3.07953e-09 1.51706e-09
4421 1 0.000635 0.0130125 -0.00611728 -0.0184677 3.98188e-09 -2.9492e-09 -6.52104e-10 5.2025e-09 3.00606e-10
2364 1 0.000635 -0.0130223 -0.00507327 -0.0190933 -9.01106e-10 -6.78649e-10 -1.45716e-09 4.85376e-10 3.07878e-10
2533 1 0.000635 -0.0108715 -0.00508 -0.01944 -2.25788e-05 -1.32125e-05 -3.94316e-06 3.00893e-10 3.03473e-12
2704 1 0.000635 -0.00867182 -0.00508 -0.01944 -6.19774e-17 -2.3845e-17 2.16e-11 0 1.42216e-35
2875 1 0.000635 -0.00647211 -0.00508 -0.01944 -1.44605e-16 -2.38442e-17 2.16e-11 0 3.49075e-35
3047 1 0.000635 -0.00427241 -0.00508 -0.01944 -1.03287e-16 -2.38433e-17 2.16e-11 1.57928e-24 2.45645e-35
3220 1 0.000635 -0.0020727 -0.00508 -0.01944 -3.38813e-21 -2.38442e-17 2.16e-11 0 2.58574e-36
3393 1 0.000635 0.000127 -0.00508 -0.01944 0 -2.38442e-17 2.16e-11 0 2.58574e-36
3566 1 0.000635 0.0023267 -0.00508 -0.01944 -3.38813e-21 -2.38459e-17 2.16e-11 0 2.58574e-36
3739 1 0.000635 0.00452641 -0.00508 -0.01944 4.13081e-17 -2.38433e-17 2.16e-11 5.26426e-25 2.84431e-35
3911 1 0.000635 0.00672611 -0.00508 -0.01944 6.19859e-17 -2.38442e-17 2.16e-11 0 1.42216e-35
4082 1 0.000635 0.00892582 -0.00508 -0.01944 -8.47033e-21 -2.3845e-17 2.16e-11 0 2.58574e-36
4253 1 0.000635 0.0111255 -0.00508 -0.01944 -5.19149e-05 2.95586e-05 -1.373e-05 1.43658e-09 1.65993e-11
4422 1 0.000635 0.0132892 -0.00507793 -0.0191482 1.96172e-10 -1.33403e-10 6.66043e-10 3.93488e-09 3.80228e-10
2280 1 0.000635 -0.01394 -0.0044406 -0.0184851 1.32469e-09 -9.9958e-10 1.83864e-09 3.23334e-10 3.62254e-11
2365 1 0.000635 -0.0130048 -0.00380678 -0.0190644 -2.15832e-09 -5.32976e-10 -4.75788e-09 5.53039e-10 2.38855e-10
2449 1 0.000635 -0.0119714 -0.004445 -0.01944 -0.000175787 -0.000123392 7.44642e-05 4.69678e-10 1.5379e-10
2534 1 0.000635 -0.0108715 -0.00381 -0.01944 -2.32319e-07 -1.1822e-07 -6.34942e-06 3.91872e-10 4.65433e-35
2619 1 0.000635 -0.00977167 -0.004445 -0.01944 -5.00823e-09 8.67451e-09 -4.25624e-07 3.4269e-12 6.01185e-35
2705 1 0.000635 -0.00867182 -0.00381 -0.01944 -8.2623e-17 0 2.16e-11 1.05285e-24 2.06859e-35
2790 1 0.000635 -0.00757197 -0.004445 -0.01944 1.44602e-16 -5.96282e-17 2.16e-11 5.26426e-25 3.74932e-35
2876 1 0.000635 -0.00647211 -0.00381 -0.01944 -1.44605e-16 0 2.16e-11 0 3.23218e-35
2961 1 0.000635 -0.00537226 -0.004445 -0.01944 1.44604e-16 -5.9629e-17 2.16e-11 5.26426e-25 3.74932e-35
3048 1 0.000635 -0.00427241 -0.00381 -0.01944 -1.03291e-16 0 2.16e-11 0 1.68073e-35
3134 1 0.000635 -0.00317256 -0.004445 -0.01944 3.09963e-17 -5.36693e-17 2.16e-11 1.57928e-24 8.40366e-36
3221 1 0.000635 -0.0020727 -0.00381 -0.01944 -6.77626e-21 0 2.16e-11 2.10571e-24 0
3307 1 0.000635 -0.000972852 -0.004445 -0.01944 0 -4.77053e-17 2.16e-11 1.05285e-24 5.17148e-36
3394 1 0.000635 0.000127 -0.00381 -0.01944 0 0 2.16e-11 1.05285e-24 0
3480 1 0.000635 0.00122685 -0.004445 -0.01944 0 -4.77053e-17 2.16e-11 1.05285e-24 5.17148e-36
3567 1 0.000635 0.0023267 -0.00381 -0.01944 0 0 2.16e-11 2.10571e-24 0
3653 1 0.000635 0.00342656 -0.004445 -0.01944 3.09811e-17 -5.36701e-17 2.16e-11 1.05285e-24 8.40366e-36
3740 1 0.000635 0.00452641 -0.00381 -0.01944 4.13217e-17 7.70372e-34 2.16e-11 0 1.29287e-35
3826 1 0.000635 0.00562626 -0.004445 -0.01944 -1.44597e-16 -5.9629e-17 2.16e-11 5.26426e-25 3.74932e-35
3912 1 0.000635 0.00672611 -0.00381 -0.01944 8.26298e-17 0 2.16e-11 1.05285e-24 2.06859e-35
3997 1 0.000635 0.00782597 -0.004445 -0.01944 -3.38813e-21 -4.77061e-17 2.16e-11 1.05285e-24 5.17148e-36
4083 1 0.000635 0.00892582 -0.00381 -0.01944 -6.77626e-21 0 2.16e-11 1.05285e-24 0
4168 1 0.000635 0.0100257 -0.004445 -0.01944 2.51684e-08 4.3593e-08 -5.9131e-07 6.66055e-12 6.01185e-35
4254 1 0.000635 0.0111255 -0.00381 -0.01944 1.69907e-07 -4.66493e-08 -5.27994e-06 2.6853e-10 4.65433e-35
4338 1 0.000635 0.0122254 -0.004445 -0.01944 0.000167376 -0.000288432 5.82095e-05 3.2341e-09 4.73208e-10
4423 1 0.000635 0.0132871 -0.0038085 -0.019148 -2.03135e-09 -9.05818e-11 6.76595e-09 2.4281e-09 1.21572e-10
4507 1 0.000635 0.0142945 -0.00444209 -0.0187042 1.01434e-09 6.2626e-11 -4.62114e-10 3.84785e-09 1.42837e-11
2281 1 0.000635 -0.0139691 -0.00317282 -0.0185344 3.31799e-09 -7.43939e-10 5.501e-09 1.73498e-10 2.29224e-11
2366 1 0.000635 -0.0130058 -0.00253839 -0.0190658 1.09505e-09 -3.62749e-10 2.26223e-09 5.22936e-10 6.87319e-11
2450 1 0.000635 -0.0119714 -0.003175 -0.01944 4.07959e-05 7.74705e-05 -5.09149e-06 5.38004e-10 5.99582e-11
2535 1 0.000635 -0.0108715 -0.00254 -0.01944 -2.81537e-07 -2.22767e-08 -6.62389e-06 4.27204e-10 6.33506e-35
2620 1 0.000635 -0.00977167 -0.003175 -0.01944 -1.3427e-16 4.1748e-17 2.16e-11 5.26426e-25 5.81792e-35
2706 1 0.000635 -0.00867182 -0.00254 -0.01944 -7.2301e-17 -5.97417e-18 2.16e-11 0 1.61609e-35
2791 1 0.000635 -0.00757197 -0.003175 -0.01944 1.44602e-16 4.77053e-17 2.16e-11 5.26426e-25 3.55539e-35
2877 1 0.000635 -0.00647211 -0.00254 -0.01944 -1.44605e-16 -1.19365e-17 2.16e-11 0 3.23218e-35
2962 1 0.000635 -0.00537226 -0.003175 -0.01944 1.44604e-16 4.7707e-17 2.16e-11 0 3.55539e-35
3049 1 0.000635 -0.00427241 -0.00254 -0.01944 -1.03284e-16 -1.19373e-17 2.16e-11 5.26426e-25 1.93931e-35
3135 1 0.000635 -0.00317256 -0.003175 -0.01944 3.09963e-17 4.17472e-17 2.16e-11 1.05285e-24 6.46435e-36
3222 1 0.000635 -0.0020727 -0.00254 -0.01944 0 -1.43996e-20 2.16e-11 0 0
3308 1 0.000635 -0.000972852 -0.003175 -0.01944 0 3.57823e-17 2.16e-11 1.05285e-24 3.23218e-36
3395 1 0.000635 0.000127 -0.00254 -0.01944 0 -1.35525e-20 2.16e-11 0 0
3481 1 0.000635 0.00122685 -0.003175 -0.01944 0 3.57823e-17 2.16e-11 1.05285e-24 3.23218e-36
3568 1 0.000635 0.0023267 -0.00254 -0.01944 -6.77626e-21 -1.35525e-20 2.16e-11 0 0
3654 1 0.000635 0.00342656 -0.003175 -0.01944 3.09777e-17 4.17463e-17 2.16e-11 1.05285e-24 6.46435e-36
3741 1 0.000635 0.00452641 -0.00254 -0.01944 4.13115e-17 -1.19382e-17 2.16e-11 5.26426e-25 1.93931e-35
3827 1 0.000635 0.00562626 -0.003175 -0.01944 -1.44595e-16 4.77053e-17 2.16e-11 5.26426e-25 3.55539e-35
3913 1 0.000635 0.00672611 -0.00254 -0.01944 7.23095e-17 -5.97502e-18 2.16e-11 0 1.61609e-35
3998 1 0.000635 0.00782597 -0.003175 -0.01944 0 3.57823e-17 2.16e-11 1.05285e-24 3.23218e-36
4084 1 0.000635 0.00892582 -0.00254 -0.01944 -8.47033e-21 -1.27055e-20 2.16e-11 0 0
4169 1 0.000635 0.0100257 -0.003175 -0.01944 1.3427e-16 4.1748e-17 2.16e-11 5.26426e-25 5.81792e-35
4255 1 0.000635 0.0111255 -0.00254 -0.01944 1.74066e-07 -3.02552e-08 -5.26339e-06 2.66807e-10 6.33506e-35
4339 1 0.000635 0.0122254 -0.003175 -0.01944 4.25058e-05 5.29319e-06 1.94844e-05 3.4641e-10 6.33128e-12
4424 1 0.000635 0.0132817 -0.00253935 -0.0191326 1.86897e-09 2.221e-11 -4.8479e-09 3.82606e-10 1.6088e-11
4508 1 0.000635 0.0143001 -0.00317297 -0.0187143 8.80627e-10 2.48471e-10 -8.43834e-10 2.68476e-09 1.24771e-10
2282 1 0.000635 -0.0139801 -0.00190391 -0.0185539 1.25257e-09 -5.40938e-10 2.0397e-09 8.65581e-11 2.35754e-11
2367 1 0.000635 -0.0130055 -0.00126936 -0.0190649 -9.67834e-10 -2.31543e-10 -2.32481e-09 5.05471e-10 2.37119e-11
2451 1 0.000635 -0.0119714 -0.001905 -0.01944 6.9632e-06 3.21294e-05 8.24726e-06 5.01038e-10 9.47989e-12
2536 1 0.000635 -0.0108715 -0.00127 -0.01944 -2.82783e-07 -1.12334e-08 -6.60705e-06 4.25021e-10 6.33506e-35
2621 1 0.000635 -0.00977167 -0.001905 -0.01944 -1.44592e-16 -1.19229e-17 2.16e-11 5.26426e-25 6.39971e-35
2707 1 0.000635 -0.00867182 -0.00127 -0.01944 -7.2301e-17 5.96909e-18 2.16e-11 5.26426e-25 1.61609e-35
2792 1 0.000635 -0.00757197 -0.001905 -0.01944 1.44605e-16 -1.19229e-17 2.16e-11 0 3.29682e-35
2878 1 0.000635 -0.00647211 -0.00127 -0.01944 -1.44605e-16 1.19331e-17 2.16e-11 0 3.23218e-35
2963 1 0.000635 -0.00537226 -0.001905 -0.01944 1.44602e-16 -1.19246e-17 2.16e-11 0 3.29682e-35
3050 1 0.000635 -0.00427241 -0.00127 -0.01944 -1.13613e-16 5.96993e-18 2.16e-11 0 2.13324e-35
3136 1 0.000635 -0.00317256 -0.001905 -0.01944 4.13081e-17 -1.19229e-17 2.16e-11 0 5.81792e-36
3223 1 0.000635 -0.0020727 -0.00127 -0.01944 0 7.6233e-21 2.16e-11 0 0
3309 1 0.000635 -0.000972852 -0.001905 -0.01944 0 -1.19229e-17 2.16e-11 0 6.46435e-37
3396 1 0.000635 0.000127 -0.00127 -0.01944 0 6.77626e-21 2.16e-11 0 0
3482 1 0.000635 0.00122685 -0.001905 -0.01944 0 -1.19229e-17 2.16e-11 0 6.46435e-37
3569 1 0.000635 0.0023267 -0.00127 -0.01944 -6.77626e-21 6.77626e-21 2.16e-11 0 0
3655 1 0.000635 0.00342656 -0.001905 -0.01944 2.06608e-17 -1.19229e-17 2.16e-11 0 1.93931e-36
3742 1 0.000635 0.00452641 -0.00127 -0.01944 4.13149e-17 1.19331e-17 2.16e-11 5.26426e-25 1.93931e-35
3828 1 0.000635 0.00562626 -0.001905 -0.01944 -1.44599e-16 -1.19229e-17 2.16e-11 0 3.29682e-35
3914 1 0.000635 0.00672611 -0.00127 -0.01944 7.23078e-17 5.96909e-18 2.16e-11 5.26426e-25 1.61609e-35
3999 1 0.000635 0.00782597 -0.001905 -0.01944 -6.77626e-21 -1.19229e-17 2.16e-11 5.26426e-25 6.46435e-37
4085 1 0.000635 0.00892582 -0.00127 -0.01944 -6.77626e-21 6.77626e-21 2.16e-11 0 0
4170 1 0.000635 0.0100257 -0.001905 -0.01944 1.44599e-16 -1.19229e-17 2.16e-11 0 6.39971e-35
4256 1 0.000635 0.0111255 -0.00127 -0.01944 1.87447e-07 -6.40716e-10 -5.38659e-06 2.79627e-10 6.33506e-35
4340 1 0.000635 0.0122254 -0.001905 -0.01944 4.7216e-06 7.7094e-06 9.86466e-06 3.40171e-10 6.42429e-13
4425 1 0.000635 0.0132822 -0.00126976 -0.0191351 -6.90866e-10 1.17584e-11 1.98767e-09 3.73448e-10 3.82769e-12
4509 1 0.000635 0.0142866 -0.00190401 -0.0186855 2.10652e-10 2.24598e-11 -1.05366e-10 1.27351e-10 1.31087e-11
2283 1 0.000635 -0.0139803 -0.00063465 -0.0185548 4.96561e-10 -3.51357e-10 6.15378e-10 8.299e-11 1.55895e-11
2452 1 0.000635 -0.0119714 -0.000635 -0.01944 -2.13759e-06 8.56408e-06 1.17501e-05 4.90486e-10 7.07016e-13
2622 1 0.000635 -0.00977167 -0.000635 -0.01944 -1.44599e-16 -8.47033e-21 2.16e-11 0 6.33506e-35
2793 1 0.000635 -0.00757197 -0.000635 -0.01944 1.44604e-16 -1.19339e-17 2.16e-11 5.26426e-25 3.23218e-35
2964 1 0.000635 -0.00537226 -0.000635 -0.01944 1.44604e-16 -1.19365e-17 2.16e-11 0 3.23218e-35
3137 1 0.000635 -0.00317256 -0.000635 -0.01944 4.13183e-17 -8.47033e-21 2.16e-11 0 5.17148e-36
3310 1 0.000635 -0.000972852 -0.000635 -0.01944 0 -8.47033e-21 2.16e-11 0 0
3483 1 0.000635 0.00122685 -0.000635 -0.01944 0 -8.47033e-21 2.16e-11 0 0
3656 1 0.000635 0.00342656 -0.000635 -0.01944 3.09811e-17 -5.97078e-18 2.16e-11 5.26426e-25 3.23218e-36
3829 1 0.000635 0.00562626 -0.000635 -0.01944 -1.44597e-16 -1.19339e-17 2.16e-11 5.26426e-25 3.23218e-35
4000 1 0.000635 0.00782597 -0.000635 -0.01944 0 -8.47033e-21 2.16e-11 0 0
4171 1 0.000635 0.0100257 -0.000635 -0.01944 1.44599e-16 -8.47033e-21 2.16e-11 0 6.33506e-35
4341 1 0.000635 0.0122254 -0.000635 -0.01944 4.67699e-07 2.87755e-06 8.20611e-06 3.52537e-10 7.98318e-14
4510 1 0.000635 0.0142824 -0.000634677 -0.0186776 -6.59659e-10 1.84438e-10 1.21687e-09 1.13279e-10 1.10067e-11
2284 1 0.000635 -0.0139804 0.000634696 -0.0185549 -4.35973e-10 -2.26578e-12 -1.18235e-09 8.30646e-11 1.55624e-11
2368 1 0.000635 -0.0130056 4.51297e-09 -0.0190652 7.86017e-10 -8.82195e-11 1.72968e-09 5.02573e-10 1.30978e-11
2453 1 0.000635 -0.0119714 0.000635 -0.01944 -2.08448e-06 -8.34956e-06 1.17267e-05 4.90294e-10 6.72734e-13
2537 1 0.000635 -0.0108715 0 -0.01944 -2.84677e-07 2.32816e-10 -6.61464e-06 4.26055e-10 6.33506e-35
2623 1 0.000635 -0.00977167 0.000635 -0.01944 -1.44599e-16 -3.38813e-21 2.16e-11 0 6.33506e-35
2708 1 0.000635 -0.00867182 0 -0.01944 -8.26247e-17 5.92923e-21 2.16e-11 0 2.06859e-35
2794 1 0.000635 -0.00757197 0.000635 -0.01944 1.44602e-16 -3.38813e-21 2.16e-11 0 3.23218e-35
2879 1 0.000635 -0.00647211 0 -0.01944 -1.44605e-16 5.0822e-21 2.16e-11 0 3.23218e-35
2965 1 0.000635 -0.00537226 0.000635 -0.01944 1.44602e-16 -3.38813e-21 2.16e-11 0 3.23218e-35
3051 1 0.000635 -0.00427241 0 -0.01944 -1.03282e-16 5.92923e-21 2.16e-11 0 1.68073e-35
3138 1 0.000635 -0.00317256 0.000635 -0.01944 4.13149e-17 -3.38813e-21 2.16e-11 0 5.17148e-36
3224 1 0.000635 -0.0020727 0 -0.01944 0 6.77626e-21 2.16e-11 0 0
3311 1 0.000635 -0.000972852 0.000635 -0.01944 0 -3.38813e-21 2.16e-11 0 0
3397 1 0.000635 0.000127 0 -0.01944 0 6.77626e-21 2.16e-11 0 0
3484 1 0.000635 0.00122685 0.000635 -0.01944 0 -3.38813e-21 2.16e-11 0 0
3570 1 0.000635 0.0023267 0 -0.01944 -3.38813e-21 5.0822e-21 2.16e-11 5.26426e-25 0
3657 1 0.000635 0.00342656 0.000635 -0.01944 2.06574e-17 -3.38813e-21 2.16e-11 0 1.29287e-36
3743 1 0.000635 0.00452641 0 -0.01944 4.13132e-17 5.92923e-21 2.16e-11 0 1.29287e-35
3830 1 0.000635 0.00562626 0.000635 -0.01944 -1.44595e-16 -3.38813e-21 2.16e-11 0 3.23218e-35
3915 1 0.000635 0.00672611 0 -0.01944 8.26315e-17 5.92923e-21 2.16e-11 0 2.06859e-35
4001 1 0.000635 0.00782597 0.000635 -0.01944 0 -3.38813e-21 2.16e-11 0 0
4086 1 0.000635 0.00892582 0 -0.01944 -6.77626e-21 6.77626e-21 2.16e-11 0 0
4172 1 0.000635 0.0100257 0.000635 -0.01944 1.44599e-16 -3.38813e-21 2.16e-11 0 6.33506e-35
4257 1 0.000635 0.0111255 0 -0.01944 1.87827e-07 1.13075e-10 -5.37782e-06 2.787e-10 6.33506e-35
4342 1 0.000635 0.0122254 0.000635 -0.01944 4.55937e-07 -2.72254e-06 8.20004e-06 3.52433e-10 7.18262e-14
4426 1 0.000635 0.0132826 2.95503e-09 -0.0191366 6.61397e-11 7.27424e-11 -3.87324e-10 3.77019e-10 1.77644e-12
4511 1 0.000635 0.0142825 0.000634708 -0.0186777 -6.05455e-11 2.21128e-10 -3.13097e-10 1.13315e-10 1.09868e-11
2285 1 0.000635 -0.0139803 0.00190396 -0.0185544 -1.80337e-09 1.61537e-10 -3.52002e-09 8.68373e-11 2.34879e-11
2369 1 0.000635 -0.0130056 0.00126937 -0.0190651 -2.29015e-09 7.03345e-11 -5.26321e-09 5.05098e-10 2.35246e-11
2454 1 0.000635 -0.0119714 0.001905 -0.01944 7.09576e-06 -3.18625e-05 8.1922e-06 5.00396e-10 9.32983e-12
2538 1 0.000635 -0.0108715 0.00127 -0.01944 -2.82434e-07 1.17202e-08 -6.60299e-06 4.24484e-10 6.33506e-35
2624 1 0.000635 -0.00977167 0.001905 -0.01944 -1.44595e-16 1.19221e-17 2.16e-11 0 6.39971e-35
2709 1 0.000635 -0.00867182 0.00127 -0.01944 -8.26264e-17 0 2.16e-11 0 2.06859e-35
2795 1 0.000635 -0.00757197 0.001905 -0.01944 1.44604e-16 1.19221e-17 2.16e-11 0 3.29682e-35
2880 1 0.000635 -0.00647211 0.00127 -0.01944 -1.44605e-16 0 2.16e-11 0 3.23218e-35
2966 1 0.000635 -0.00537226 0.001905 -0.01944 1.44604e-16 1.19238e-17 2.16e-11 0 3.29682e-35
3052 1 0.000635 -0.00427241 0.00127 -0.01944 -1.0328e-16 0 2.16e-11 0 1.68073e-35
3139 1 0.000635 -0.00317256 0.001905 -0.01944 4.13115e-17 1.19229e-17 2.16e-11 0 5.81792e-36
3225 1 0.000635 -0.0020727 0.00127 -0.01944 0 0 2.16e-11 0 0
3312 1 0.000635 -0.000972852 0.001905 -0.01944 0 1.19212e-17 2.16e-11 0 6.46435e-37
3398 1 0.000635 0.000127 0.00127 -0.01944 0 0 2.16e-11 0 0
3485 1 0.000635 0.00122685 0.001905 -0.01944 0 1.19212e-17 2.16e-11 0 6.46435e-37
3571 1 0.000635 0.0023267 0.00127 -0.01944 -6.77626e-21 0 2.16e-11 0 0
3658 1 0.000635 0.00342656 0.001905 -0.01944 2.06591e-17 1.19221e-17 2.16e-11 0 1.93931e-36
3744 1 0.000635 0.00452641 0.00127 -0.01944 4.13115e-17 0 2.16e-11 0 1.29287e-35
3831 1 0.000635 0.00562626 0.001905 -0.01944 -1.44597e-16 1.19221e-17 2.16e-11 0 3.29682e-35
3916 1 0.000635 0.00672611 0.00127 -0.01944 8.26331e-17 0 2.16e-11 0 2.06859e-35