ITEM: TIMESTEP
1300000
ITEM: NUMBER OF ATOMS
6793
ITEM: BOX BOUNDS ff ff ff
-8.9999999999999997e-02 8.9999999999999997e-02
-8.9999999999999997e-02 8.9999999999999997e-02
-4.0000000000000001e-02 4.0000000000000001e-02
ITEM: ATOMS id type radius x y z fx fy fz c_bendingE c_stretchingE
3213 1 0.000635 -0.00207099 -0.0139528 -0.0138396 -4.45374e-12 -2.38387e-11 -1.21464e-10 3.67892e-09 3.60027e-10
3299 1 0.000635 -0.000974405 -0.0145881 -0.0138056 -2.39739e-13 -1.96191e-11 -1.3336e-10 3.45272e-09 1.12583e-10
3386 1 0.000635 0.000125956 -0.0139647 -0.0139148 3.16182e-12 2.16668e-11 2.85878e-11 2.57256e-09 4.05773e-11
3041 1 0.000635 -0.00426485 -0.012683 -0.0138405 -1.29525e-11 -3.72831e-11 -1.97649e-10 2.25079e-09 1.34963e-10
3127 1 0.000635 -0.00316697 -0.013317 -0.0138408 3.8123e-12 -2.25572e-11 -1.19438e-10 2.71011e-09 3.54074e-10
3214 1 0.000635 -0.0020727 -0.0127 -0.01404 -9.65193e-05 1.67601e-05 -2.65916e-06 3.14559e-09 7.55376e-11
3300 1 0.000635 -0.000973309 -0.0133351 -0.0140123 -1.40205e-12 6.08843e-12 5.11015e-11 2.39061e-09 3.76296e-11
3387 1 0.000635 0.000127 -0.0127 -0.01404 -4.50091e-05 -6.27548e-05 3.24839e-06 2.44747e-10 1.82311e-11
3473 1 0.000635 0.00122588 -0.0133337 -0.0139823 1.9025e-11 -4.68405e-11 -3.50605e-10 2.96926e-10 1.19366e-10
3560 1 0.000635 0.0023267 -0.0127 -0.01404 6.6556e-05 -0.000245395 9.95721e-05 4.05559e-10 2.40189e-10
3646 1 0.000635 0.00340966 -0.013297 -0.0137377 2.31262e-11 -4.122e-11 -1.84538e-10 3.83455e-10 2.45208e-10
3733 1 0.000635 0.00451592 -0.0126783 -0.0138097 5.23053e-11 -1.16758e-10 -5.38809e-10 2.62053e-10 3.99772e-11
2870 1 0.000635 -0.00646264 -0.0114154 -0.0138466 1.86775e-12 -1.03144e-11 -7.44999e-11 1.76623e-09 5.52895e-11
2955 1 0.000635 -0.00536347 -0.0120491 -0.0138424 -1.64214e-11 -2.75553e-11 -1.66495e-10 1.95655e-09 6.13254e-11
3042 1 0.000635 -0.00427241 -0.01143 -0.01404 6.64986e-07 6.34806e-05 -1.55358e-05 1.72299e-09 1.91638e-11
3128 1 0.000635 -0.00317256 -0.012065 -0.01404 -3.92908e-05 9.63075e-05 -1.86286e-05 2.18448e-09 7.47106e-11
3215 1 0.000635 -0.0020727 -0.01143 -0.01404 3.30524e-08 -8.34882e-08 -3.52813e-06 1.18539e-10 5.17148e-36
3301 1 0.000635 -0.000972852 -0.012065 -0.01404 4.23336e-08 -2.42552e-05 -2.83052e-06 1.12327e-10 2.64689e-12
3388 1 0.000635 0.000127 -0.01143 -0.01404 9.20405e-09 -1.69407e-21 -1.10366e-06 2.30772e-11 5.17148e-36
3474 1 0.000635 0.00122685 -0.012065 -0.01404 -3.01814e-08 -1.38492e-06 -4.38496e-06 2.67413e-10 5.5621e-15
3561 1 0.000635 0.0023267 -0.01143 -0.01404 1.59524e-07 -1.03317e-07 -5.66106e-06 3.35908e-10 5.17148e-36
3647 1 0.000635 0.00342656 -0.012065 -0.01404 5.61013e-05 3.97181e-05 4.45403e-07 3.07722e-10 4.29615e-11
3734 1 0.000635 0.00452641 -0.01143 -0.01404 2.51671e-05 1.76583e-05 3.08239e-06 2.12144e-10 8.57079e-12
3820 1 0.000635 0.00561897 -0.0120507 -0.0138521 4.23777e-11 -7.96964e-11 -5.25118e-10 1.975e-10 8.81065e-12
3906 1 0.000635 0.00672092 -0.0114202 -0.0138837 3.7598e-11 -6.65339e-11 -4.65207e-10 1.63641e-10 1.84385e-12
2785 1 0.000635 -0.00756205 -0.0107816 -0.0138514 4.18449e-13 -2.4217e-11 -1.33298e-10 1.64302e-09 8.10562e-11
2956 1 0.000635 -0.00537226 -0.010795 -0.01404 3.06518e-05 3.7996e-05 -1.31462e-05 1.44215e-09 8.53297e-12
3129 1 0.000635 -0.00317256 -0.010795 -0.01404 -7.98126e-09 -7.16103e-08 -3.50272e-06 1.16827e-10 6.46435e-36
3302 1 0.000635 -0.000972852 -0.010795 -0.01404 4.03056e-09 -1.69407e-21 -2.44105e-07 1.1267e-12 5.17148e-36
3475 1 0.000635 0.00122685 -0.010795 -0.01404 8.59534e-09 0 -5.09043e-07 4.9012e-12 5.17148e-36
3648 1 0.000635 0.00342656 -0.010795 -0.01404 1.10527e-07 -6.69006e-08 -4.32517e-06 1.89236e-10 1.0343e-35
3821 1 0.000635 0.00562626 -0.010795 -0.01404 1.38553e-05 9.72681e-06 3.08891e-06 1.4769e-10 2.59273e-12
3992 1 0.000635 0.00782275 -0.0107892 -0.0139155 1.62343e-11 -1.18574e-11 -1.60497e-10 8.82241e-10 5.1755e-11
2615 1 0.000635 -0.00975979 -0.00951203 -0.0138473 -1.43491e-11 -3.14312e-11 -1.95316e-10 1.72214e-09 1.94985e-10
2700 1 0.000635 -0.00866133 -0.0101474 -0.0138535 -1.73388e-11 -4.11605e-11 -2.33543e-10 1.59959e-09 1.21122e-10
2786 1 0.000635 -0.00757197 -0.009525 -0.01404 7.4761e-05 3.37592e-06 -9.88091e-06 1.03669e-09 4.19206e-11
2871 1 0.000635 -0.00647211 -0.01016 -0.01404 5.44833e-05 1.86015e-05 -1.12801e-05 1.23191e-09 1.96057e-11
2957 1 0.000635 -0.00537226 -0.009525 -0.01404 -4.81499e-08 -5.08793e-08 -3.40815e-06 1.10637e-10 3.74932e-35
3043 1 0.000635 -0.00427241 -0.01016 -0.01404 -3.16862e-08 -6.06357e-08 -3.46804e-06 1.14543e-10 2.71503e-35
3130 1 0.000635 -0.00317256 -0.009525 -0.01404 2.0671e-17 0 2.16e-11 1.05285e-24 6.46435e-36
3216 1 0.000635 -0.0020727 -0.01016 -0.01404 -6.77626e-21 0 2.16e-11 0 5.17148e-36
3303 1 0.000635 -0.000972852 -0.009525 -0.01404 0 0 2.16e-11 0 5.17148e-36
3389 1 0.000635 0.000127 -0.01016 -0.01404 0 0 2.16e-11 0 5.17148e-36
3476 1 0.000635 0.00122685 -0.009525 -0.01404 0 0 2.16e-11 0 5.17148e-36
3562 1 0.000635 0.0023267 -0.01016 -0.01404 0 0 2.16e-11 0 5.17148e-36
3649 1 0.000635 0.00342656 -0.009525 -0.01404 4.13115e-17 0 2.16e-11 0 1.0343e-35
3735 1 0.000635 0.00452641 -0.01016 -0.01404 6.67491e-08 -4.4669e-08 -3.41005e-06 1.14914e-10 3.10289e-35
3822 1 0.000635 0.00562626 -0.009525 -0.01404 4.93871e-08 -2.58363e-08 -2.75506e-06 7.51267e-11 3.74932e-35
3907 1 0.000635 0.00672611 -0.01016 -0.01404 2.1099e-05 -7.44199e-06 4.33164e-06 1.17159e-10 2.81344e-12
3993 1 0.000635 0.00782597 -0.009525 -0.01404 1.40007e-05 -2.73329e-05 2.65593e-06 3.36327e-10 2.85154e-12
4078 1 0.000635 0.0089236 -0.0101538 -0.0139239 1.494e-11 -4.31547e-12 -1.22963e-10 1.72118e-09 8.74684e-11
4164 1 0.000635 0.0100087 -0.00950281 -0.0137944 -3.35818e-11 3.03889e-11 1.38279e-10 1.55275e-09 1.44793e-10
2446 1 0.000635 -0.0119593 -0.00824752 -0.0138062 1.22866e-11 -2.73653e-11 -1.85906e-10 2.71968e-09 2.33083e-11
2530 1 0.000635 -0.0108585 -0.00887886 -0.0138329 2.48884e-11 2.04047e-11 -1.86611e-11 2.25244e-09 7.25593e-11
2616 1 0.000635 -0.00977167 -0.008255 -0.01404 -2.91149e-05 -8.99565e-05 1.81477e-05 6.02768e-10 4.60452e-11
2701 1 0.000635 -0.00867182 -0.00889 -0.01404 9.59024e-05 -9.22579e-06 -9.56917e-06 8.26458e-10 7.57416e-11
2787 1 0.000635 -0.00757197 -0.008255 -0.01404 -6.40204e-08 -4.04524e-08 -3.36432e-06 1.07762e-10 4.0079e-35
2872 1 0.000635 -0.00647211 -0.00889 -0.01404 -5.83785e-08 -4.36394e-08 -3.35254e-06 1.07018e-10 3.74932e-35
2958 1 0.000635 -0.00537226 -0.008255 -0.01404 1.44607e-16 -7.15799e-17 2.16e-11 5.26426e-25 4.0079e-35
3044 1 0.000635 -0.00427241 -0.00889 -0.01404 -1.03289e-16 -4.76841e-17 2.16e-11 1.05285e-24 2.71503e-35
3131 1 0.000635 -0.00317256 -0.008255 -0.01404 3.09912e-17 -7.75431e-17 2.16e-11 5.26426e-25 1.87466e-35
3217 1 0.000635 -0.0020727 -0.00889 -0.01404 -3.38813e-21 -4.76866e-17 2.16e-11 0 5.17148e-36
3304 1 0.000635 -0.000972852 -0.008255 -0.01404 0 -7.15833e-17 2.16e-11 0 1.0343e-35
3390 1 0.000635 0.000127 -0.00889 -0.01404 0 -4.76866e-17 2.16e-11 0 5.17148e-36
3477 1 0.000635 0.00122685 -0.008255 -0.01404 0 -7.15833e-17 2.16e-11 0 1.0343e-35
3563 1 0.000635 0.0023267 -0.00889 -0.01404 0 -4.76858e-17 2.16e-11 0 5.17148e-36
3650 1 0.000635 0.00342656 -0.008255 -0.01404 4.13098e-17 -7.15825e-17 2.16e-11 0 1.0343e-35
3736 1 0.000635 0.00452641 -0.00889 -0.01404 4.13115e-17 -4.76841e-17 2.16e-11 0 3.10289e-35
3823 1 0.000635 0.00562626 -0.008255 -0.01404 -1.446e-16 -7.15791e-17 2.16e-11 0 4.0079e-35
3908 1 0.000635 0.00672611 -0.00889 -0.01404 2.69579e-08 -3.26952e-08 -2.40226e-06 5.59671e-11 1.68073e-35
3994 1 0.000635 0.00782597 -0.008255 -0.01404 -1.89169e-08 -8.19419e-08 -3.26615e-06 1.12736e-10 1.0343e-35
4079 1 0.000635 0.00892582 -0.00889 -0.01404 -8.24482e-05 9.59851e-05 -2.52401e-05 8.6495e-10 5.43771e-11
4165 1 0.000635 0.0100257 -0.008255 -0.01404 0.000293718 5.57577e-05 7.50933e-05 1.22376e-09 5.3373e-10
2362 1 0.000635 -0.0130576 -0.0076125 -0.0137425 2.96565e-12 -3.43593e-11 -1.79704e-10 2.45194e-09 9.19856e-11
2447 1 0.000635 -0.0119683 -0.00698406 -0.013932 2.59251e-12 -2.74704e-11 -2.18007e-10 3.47371e-10 7.92337e-11
2531 1 0.000635 -0.010871 -0.00761972 -0.0139967 -2.19366e-11 -2.52188e-11 -4.71302e-10 4.22568e-10 1.5526e-11
2617 1 0.000635 -0.00977167 -0.006985 -0.01404 -7.50029e-06 -4.27539e-06 -2.35455e-06 9.29781e-11 3.29697e-13
2702 1 0.000635 -0.00867182 -0.00762 -0.01404 -7.8482e-08 -2.40864e-08 -3.47006e-06 1.14974e-10 2.9736e-35
2788 1 0.000635 -0.00757197 -0.006985 -0.01404 1.44605e-16 -2.38958e-17 2.16e-11 0 4.0079e-35
2873 1 0.000635 -0.00647211 -0.00762 -0.01404 -1.44609e-16 2.38967e-17 2.16e-11 0 4.0079e-35
2959 1 0.000635 -0.00537226 -0.006985 -0.01404 1.44605e-16 -2.38958e-17 2.16e-11 0 4.0079e-35
3045 1 0.000635 -0.00427241 -0.00762 -0.01404 -1.13623e-16 2.98573e-17 2.16e-11 0 2.90896e-35
3132 1 0.000635 -0.00317256 -0.006985 -0.01404 3.09912e-17 -2.98573e-17 2.16e-11 0 1.87466e-35
3218 1 0.000635 -0.0020727 -0.00762 -0.01404 -1.69407e-21 2.38958e-17 2.16e-11 0 1.0343e-35
3305 1 0.000635 -0.000972852 -0.006985 -0.01404 0 -2.38967e-17 2.16e-11 0 1.0343e-35
3391 1 0.000635 0.000127 -0.00762 -0.01404 0 2.38967e-17 2.16e-11 0 1.0343e-35
3478 1 0.000635 0.00122685 -0.006985 -0.01404 0 -2.38967e-17 2.16e-11 0 1.0343e-35
3564 1 0.000635 0.0023267 -0.00762 -0.01404 0 2.38967e-17 2.16e-11 0 1.0343e-35
3651 1 0.000635 0.00342656 -0.006985 -0.01404 4.13081e-17 -2.38967e-17 2.16e-11 0 1.0343e-35
3737 1 0.000635 0.00452641 -0.00762 -0.01404 4.13217e-17 2.38958e-17 2.16e-11 0 2.06859e-35
3824 1 0.000635 0.00562626 -0.006985 -0.01404 -1.44599e-16 -2.3895e-17 2.16e-11 0 4.0079e-35
3909 1 0.000635 0.00672611 -0.00762 -0.01404 6.19757e-17 2.38958e-17 2.16e-11 0 2.9736e-35
3995 1 0.000635 0.00782597 -0.006985 -0.01404 -6.77626e-21 -2.38967e-17 2.16e-11 0 1.0343e-35
4080 1 0.000635 0.00892582 -0.00762 -0.01404 -7.11522e-08 -1.57105e-07 -6.0141e-06 5.17056e-10 1.0343e-35
4166 1 0.000635 0.0100257 -0.006985 -0.01404 -9.26714e-05 5.30336e-05 -1.88646e-05 9.39647e-10 5.32261e-11
4251 1 0.000635 0.011118 -0.00761208 -0.0138936 -1.04852e-12 -4.35868e-12 -2.00202e-11 1.49989e-09 8.14983e-10
2363 1 0.000635 -0.0130489 -0.00634345 -0.0137489 1.00157e-10 -3.26939e-11 1.90452e-10 4.17667e-10 1.01078e-10
2448 1 0.000635 -0.0119705 -0.00571551 -0.0139934 -6.1403e-11 -2.43182e-11 -6.17582e-10 2.70549e-10 9.6236e-11
2532 1 0.000635 -0.0108715 -0.00635 -0.01404 -6.28513e-05 -7.08947e-05 7.2736e-06 1.24289e-10 3.37703e-11
2618 1 0.000635 -0.00977167 -0.005715 -0.01404 -3.11606e-09 5.39718e-09 -9.51036e-07 1.71248e-11 6.85221e-35
2703 1 0.000635 -0.00867182 -0.00635 -0.01404 -6.83042e-11 1.18306e-10 -3.81733e-07 2.75487e-12 2.9736e-35
2789 1 0.000635 -0.00757197 -0.005715 -0.01404 1.44602e-16 4.76832e-17 2.16e-11 0 3.74932e-35
2874 1 0.000635 -0.00647211 -0.00635 -0.01404 -1.44609e-16 7.15816e-17 2.16e-11 0 4.0079e-35
2960 1 0.000635 -0.00537226 -0.005715 -0.01404 1.44604e-16 4.76841e-17 2.16e-11 5.26426e-25 3.74932e-35
3046 1 0.000635 -0.00427241 -0.00635 -0.01404 -1.13621e-16 7.75431e-17 2.16e-11 0 2.90896e-35
3133 1 0.000635 -0.00317256 -0.005715 -0.01404 2.0671e-17 4.76858e-17 2.16e-11 5.26426e-25 6.46435e-36
3219 1 0.000635 -0.0020727 -0.00635 -0.01404 -5.0822e-21 7.15842e-17 2.16e-11 0 1.0343e-35
3306 1 0.000635 -0.000972852 -0.005715 -0.01404 0 4.76866e-17 2.16e-11 0 5.17148e-36
3392 1 0.000635 0.000127 -0.00635 -0.01404 0 7.1585e-17 2.16e-11 0 1.0343e-35
3479 1 0.000635 0.00122685 -0.005715 -0.01404 0 4.76866e-17 2.16e-11 0 5.17148e-36
3565 1 0.000635 0.0023267 -0.00635 -0.01404 0 7.15842e-17 2.16e-11 0 1.0343e-35
3652 1 0.000635 0.00342656 -0.005715 -0.01404 4.13098e-17 4.76858e-17 2.16e-11 0 1.0343e-35
3738 1 0.000635 0.00452641 -0.00635 -0.01404 4.13183e-17 7.15816e-17 2.16e-11 0 2.06859e-35
3825 1 0.000635 0.00562626 -0.005715 -0.01404 -1.44597e-16 4.76841e-17 2.16e-11 0 3.74932e-35
3910 1 0.000635 0.00672611 -0.00635 -0.01404 6.19774e-17 7.15825e-17 2.16e-11 0 2.9736e-35
3996 1 0.000635 0.00782597 -0.005715 -0.01404 -6.77626e-21 4.76849e-17 2.16e-11 0 5.17148e-36
4081 1 0.000635 0.00892582 -0.00635 -0.01404 -1.37094e-08 -2.37453e-08 -1.29356e-06 3.17427e-11 1.0343e-35
4167 1 0.000635 0.0100257 -0.005715 -0.01404 -4.25938e-08 -7.37746e-08 -3.67883e-06 2.63201e-10 6.85221e-35
4252 1 0.000635 0.0111255 -0.00635 -0.01404 -0.000292802 -3.63955e-05 -6.17213e-05 1.35674e-09 2.81122e-10
4337 1 0.000635 0.0122212 -0.00571711 -0.0139773 7.99323e-12 -5.42858e-12 -6.55307e-11 1.95069e-09 6.93877e-10
2364 1 0.000635 -0.0130336 -0.00507469 -0.0137324 2.95526e-11 -3.75938e-11 -3.84294e-11 3.44276e-10 2.3925e-10
2533 1 0.000635 -0.0108715 -0.00508 -0.01404 -1.6258e-05 -9.52949e-06 -3.64265e-06 2.40782e-10 1.56909e-12
2704 1 0.000635 -0.00867182 -0.00508 -0.01404 -6.19774e-17 -2.3845e-17 2.16e-11 0 1.42216e-35
2875 1 0.000635 -0.00647211 -0.00508 -0.01404 -1.44605e-16 -2.38442e-17 2.16e-11 0 3.49075e-35
3047 1 0.000635 -0.00427241 -0.00508 -0.01404 -1.03287e-16 -2.38433e-17 2.16e-11 1.57928e-24 2.45645e-35
3220 1 0.000635 -0.0020727 -0.00508 -0.01404 -3.38813e-21 -2.38442e-17 2.16e-11 0 2.58574e-36
3393 1 0.000635 0.000127 -0.00508 -0.01404 0 -2.38442e-17 2.16e-11 0 2.58574e-36
3566 1 0.000635 0.0023267 -0.00508 -0.01404 -3.38813e-21 -2.38459e-17 2.16e-11 0 2.58574e-36
3739 1 0.000635 0.00452641 -0.00508 -0.01404 4.13081e-17 -2.38433e-17 2.16e-11 5.26426e-25 2.84431e-35
3911 1 0.000635 0.00672611 -0.00508 -0.01404 6.19859e-17 -2.38442e-17 2.16e-11 0 1.42216e-35
4082 1 0.000635 0.00892582 -0.00508 -0.01404 -8.47033e-21 -2.3845e-17 2.16e-11 0 2.58574e-36
4253 1 0.000635 0.0111255 -0.00508 -0.01404 -4.84578e-05 2.77259e-05 -1.12915e-05 9.30731e-10 1.44288e-11
4422 1 0.000635 0.0132989 -0.00507771 -0.0137893 -1.07902e-11 4.53777e-12 6.09734e-11 2.50989e-09 1.93622e-10
2449 1 0.000635 -0.0119714 -0.004445 -0.01404 -0.000165255 -0.00011811 6.24338e-05 3.71512e-10 1.34264e-10
2534 1 0.000635 -0.0108715 -0.00381 -0.01404 -1.83144e-07 -1.00882e-07 -5.66983e-06 3.10903e-10 4.65433e-35
2619 1 0.000635 -0.00977167 -0.004445 -0.01404 -3.8935e-09 6.74374e-09 -4.11052e-07 3.19558e-12 6.01185e-35
2705 1 0.000635 -0.00867182 -0.00381 -0.01404 -8.2623e-17 0 2.16e-11 1.05285e-24 2.06859e-35
2790 1 0.000635 -0.00757197 -0.004445 -0.01404 1.44602e-16 -5.96282e-17 2.16e-11 5.26426e-25 3.74932e-35
2876 1 0.000635 -0.00647211 -0.00381 -0.01404 -1.44605e-16 0 2.16e-11 0 3.23218e-35
2961 1 0.000635 -0.00537226 -0.004445 -0.01404 1.44604e-16 -5.9629e-17 2.16e-11 5.26426e-25 3.74932e-35
3048 1 0.000635 -0.00427241 -0.00381 -0.01404 -1.03291e-16 0 2.16e-11 0 1.68073e-35
3134 1 0.000635 -0.00317256 -0.004445 -0.01404 3.09963e-17 -5.36693e-17 2.16e-11 1.57928e-24 8.40366e-36
3221 1 0.000635 -0.0020727 -0.00381 -0.01404 -6.77626e-21 0 2.16e-11 2.10571e-24 0
3307 1 0.000635 -0.000972852 -0.004445 -0.01404 0 -4.77053e-17 2.16e-11 1.05285e-24 5.17148e-36
3394 1 0.000635 0.000127 -0.00381 -0.01404 0 0 2.16e-11 1.05285e-24 0
3480 1 0.000635 0.00122685 -0.004445 -0.01404 0 -4.77053e-17 2.16e-11 1.05285e-24 5.17148e-36
3567 1 0.000635 0.0023267 -0.00381 -0.01404 0 0 2.16e-11 2.10571e-24 0
3653 1 0.000635 0.00342656 -0.004445 -0.01404 3.09811e-17 -5.36701e-17 2.16e-11 1.05285e-24 8.40366e-36
3740 1 0.000635 0.00452641 -0.00381 -0.01404 4.13217e-17 7.70372e-34 2.16e-11 0 1.29287e-35
3826 1 0.000635 0.00562626 -0.004445 -0.01404 -1.44597e-16 -5.9629e-17 2.16e-11 5.26426e-25 3.74932e-35
3912 1 0.000635 0.00672611 -0.00381 -0.01404 8.26298e-17 0 2.16e-11 1.05285e-24 2.06859e-35
3997 1 0.000635 0.00782597 -0.004445 -0.01404 -3.38813e-21 -4.77061e-17 2.16e-11 1.05285e-24 5.17148e-36
4083 1 0.000635 0.00892582 -0.00381 -0.01404 -6.77626e-21 0 2.16e-11 1.05285e-24 0
4168 1 0.000635 0.0100257 -0.004445 -0.01404 1.73312e-08 3.00186e-08 -5.53528e-07 5.81683e-12 6.01185e-35
4254 1 0.000635 0.0111255 -0.00381 -0.01404 1.16264e-07 -3.0685e-08 -4.4476e-06 1.89331e-10 4.65433e-35
4338 1 0.000635 0.0122254 -0.004445 -0.01404 0.000142469 -0.000177407 3.92631e-05 2.08771e-09 2.54494e-10
4423 1 0.000635 0.0133013 -0.00380846 -0.0138054 4.93044e-13 2.06568e-12 3.13994e-11 1.50365e-09 1.31395e-10
2450 1 0.000635 -0.0119714 -0.003175 -0.01404 3.12366e-05 6.03094e-05 -1.16705e-06 4.10146e-10 3.61323e-11
2535 1 0.000635 -0.0108715 -0.00254 -0.01404 -2.29902e-07 -1.05359e-08 -5.99126e-06 3.4757e-10 6.33506e-35
2620 1 0.000635 -0.00977167 -0.003175 -0.01404 -1.3427e-16 4.1748e-17 2.16e-11 5.26426e-25 5.81792e-35
2706 1 0.000635 -0.00867182 -0.00254 -0.01404 -7.2301e-17 -5.97417e-18 2.16e-11 0 1.61609e-35
2791 1 0.000635 -0.00757197 -0.003175 -0.01404 1.44602e-16 4.77053e-17 2.16e-11 5.26426e-25 3.55539e-35
2877 1 0.000635 -0.00647211 -0.00254 -0.01404 -1.44605e-16 -1.19365e-17 2.16e-11 0 3.23218e-35
2962 1 0.000635 -0.00537226 -0.003175 -0.01404 1.44604e-16 4.7707e-17 2.16e-11 0 3.55539e-35
3049 1 0.000635 -0.00427241 -0.00254 -0.01404 -1.03284e-16 -1.19373e-17 2.16e-11 5.26426e-25 1.93931e-35
3135 1 0.000635 -0.00317256 -0.003175 -0.01404 3.09963e-17 4.17472e-17 2.16e-11 1.05285e-24 6.46435e-36
3222 1 0.000635 -0.0020727 -0.00254 -0.01404 0 -1.43996e-20 2.16e-11 0 0
3308 1 0.000635 -0.000972852 -0.003175 -0.01404 0 3.57823e-17 2.16e-11 1.05285e-24 3.23218e-36
3395 1 0.000635 0.000127 -0.00254 -0.01404 0 -1.35525e-20 2.16e-11 0 0
3481 1 0.000635 0.00122685 -0.003175 -0.01404 0 3.57823e-17 2.16e-11 1.05285e-24 3.23218e-36
3568 1 0.000635 0.0023267 -0.00254 -0.01404 -6.77626e-21 -1.35525e-20 2.16e-11 0 0
3654 1 0.000635 0.00342656 -0.003175 -0.01404 3.09777e-17 4.17463e-17 2.16e-11 1.05285e-24 6.46435e-36
3741 1 0.000635 0.00452641 -0.00254 -0.01404 4.13115e-17 -1.19382e-17 2.16e-11 5.26426e-25 1.93931e-35
3827 1 0.000635 0.00562626 -0.003175 -0.01404 -1.44595e-16 4.77053e-17 2.16e-11 5.26426e-25 3.55539e-35
3913 1 0.000635 0.00672611 -0.00254 -0.01404 7.23095e-17 -5.97502e-18 2.16e-11 0 1.61609e-35
3998 1 0.000635 0.00782597 -0.003175 -0.01404 0 3.57823e-17 2.16e-11 1.05285e-24 3.23218e-36
4084 1 0.000635 0.00892582 -0.00254 -0.01404 -8.47033e-21 -1.27055e-20 2.16e-11 0 0
4169 1 0.000635 0.0100257 -0.003175 -0.01404 1.3427e-16 4.1748e-17 2.16e-11 5.26426e-25 5.81792e-35
4255 1 0.000635 0.0111255 -0.00254 -0.01404 1.12917e-07 -3.36615e-08 -4.30803e-06 1.77814e-10 6.33506e-35
4339 1 0.000635 0.0122254 -0.003175 -0.01404 5.31472e-05 7.424e-06 1.82115e-05 2.27095e-10 9.63732e-12
4424 1 0.000635 0.013296 -0.00253934 -0.0137861 -1.11459e-11 1.76563e-12 6.73495e-11 2.49911e-10 2.06588e-11
2451 1 0.000635 -0.0119714 -0.001905 -0.01404 1.78057e-06 3.03223e-05 9.03646e-06 4.024e-10 8.34083e-12
2536 1 0.000635 -0.0108715 -0.00127 -0.01404 -2.27086e-07 -9.78913e-09 -5.94283e-06 3.4182e-10 6.33506e-35
2621 1 0.000635 -0.00977167 -0.001905 -0.01404 -1.44592e-16 -1.19229e-17 2.16e-11 5.26426e-25 6.39971e-35
2707 1 0.000635 -0.00867182 -0.00127 -0.01404 -7.2301e-17 5.96909e-18 2.16e-11 5.26426e-25 1.61609e-35
2792 1 0.000635 -0.00757197 -0.001905 -0.01404 1.44605e-16 -1.19229e-17 2.16e-11 0 3.29682e-35
2878 1 0.000635 -0.00647211 -0.00127 -0.01404 -1.44605e-16 1.19331e-17 2.16e-11 0 3.23218e-35
2963 1 0.000635 -0.00537226 -0.001905 -0.01404 1.44602e-16 -1.19246e-17 2.16e-11 0 3.29682e-35
3050 1 0.000635 -0.00427241 -0.00127 -0.01404 -1.13613e-16 5.96993e-18 2.16e-11 0 2.13324e-35
3136 1 0.000635 -0.00317256 -0.001905 -0.01404 4.13081e-17 -1.19229e-17 2.16e-11 0 5.81792e-36
3223 1 0.000635 -0.0020727 -0.00127 -0.01404 0 7.6233e-21 2.16e-11 0 0
3309 1 0.000635 -0.000972852 -0.001905 -0.01404 0 -1.19229e-17 2.16e-11 0 6.46435e-37
3396 1 0.000635 0.000127 -0.00127 -0.01404 0 6.77626e-21 2.16e-11 0 0
3482 1 0.000635 0.00122685 -0.001905 -0.01404 0 -1.19229e-17 2.16e-11 0 6.46435e-37
3569 1 0.000635 0.0023267 -0.00127 -0.01404 -6.77626e-21 6.77626e-21 2.16e-11 0 0
3655 1 0.000635 0.00342656 -0.001905 -0.01404 2.06608e-17 -1.19229e-17 2.16e-11 0 1.93931e-36
3742 1 0.000635 0.00452641 -0.00127 -0.01404 4.13149e-17 1.19331e-17 2.16e-11 5.26426e-25 1.93931e-35
3828 1 0.000635 0.00562626 -0.001905 -0.01404 -1.44599e-16 -1.19229e-17 2.16e-11 0 3.29682e-35
3914 1 0.000635 0.00672611 -0.00127 -0.01404 7.23078e-17 5.96909e-18 2.16e-11 5.26426e-25 1.61609e-35
3999 1 0.000635 0.00782597 -0.001905 -0.01404 -6.77626e-21 -1.19229e-17 2.16e-11 5.26426e-25 6.46435e-37
4085 1 0.000635 0.00892582 -0.00127 -0.01404 -6.77626e-21 6.77626e-21 2.16e-11 0 0
4170 1 0.000635 0.0100257 -0.001905 -0.01404 1.44599e-16 -1.19229e-17 2.16e-11 0 6.39971e-35
4256 1 0.000635 0.0111255 -0.00127 -0.01404 1.26674e-07 -4.5968e-09 -4.4679e-06 1.91155e-10 6.33506e-35
4340 1 0.000635 0.0122254 -0.001905 -0.01404 1.28255e-05 5.01368e-06 1.03968e-05 2.21725e-10 8.08273e-13
4425 1 0.000635 0.0132956 -0.00126975 -0.013786 -3.54556e-11 -4.40972e-12 1.05666e-10 2.40427e-10 4.33903e-12
2452 1 0.000635 -0.0119714 -0.000635 -0.01404 -8.37771e-06 9.2207e-06 1.267e-05 3.87962e-10 1.07291e-12
2622 1 0.000635 -0.00977167 -0.000635 -0.01404 -1.44599e-16 -8.47033e-21 2.16e-11 0 6.33506e-35
2793 1 0.000635 -0.00757197 -0.000635 -0.01404 1.44604e-16 -1.19339e-17 2.16e-11 5.26426e-25 3.23218e-35
2964 1 0.000635 -0.00537226 -0.000635 -0.01404 1.44604e-16 -1.19365e-17 2.16e-11 0 3.23218e-35
3137 1 0.000635 -0.00317256 -0.000635 -0.01404 4.13183e-17 -8.47033e-21 2.16e-11 0 5.17148e-36
3310 1 0.000635 -0.000972852 -0.000635 -0.01404 0 -8.47033e-21 2.16e-11 0 0
3483 1 0.000635 0.00122685 -0.000635 -0.01404 0 -8.47033e-21 2.16e-11 0 0
3656 1 0.000635 0.00342656 -0.000635 -0.01404 3.09811e-17 -5.97078e-18 2.16e-11 5.26426e-25 3.23218e-36
3829 1 0.000635 0.00562626 -0.000635 -0.01404 -1.44597e-16 -1.19339e-17 2.16e-11 5.26426e-25 3.23218e-35
4000 1 0.000635 0.00782597 -0.000635 -0.01404 0 -8.47033e-21 2.16e-11 0 0
4171 1 0.000635 0.0100257 -0.000635 -0.01404 1.44599e-16 -8.47033e-21 2.16e-11 0 6.33506e-35
4341 1 0.000635 0.0122254 -0.000635 -0.01404 2.6032e-06 2.37325e-06 7.58171e-06 2.31816e-10 8.28689e-14
4426 1 0.000635 0.0132959 -1.66914e-16 -0.0137873 -5.48679e-12 4.48092e-14 -2.7079e-11 2.43072e-10 1.99453e-12
2453 1 0.000635 -0.0119714 0.000635 -0.01404 -8.37771e-06 -9.2207e-06 1.267e-05 3.87962e-10 1.07291e-12
2537 1 0.000635 -0.0108715 0 -0.01404 -2.26853e-07 9.19539e-18 -5.93794e-06 3.41244e-10 6.33506e-35
2623 1 0.000635 -0.00977167 0.000635 -0.01404 -1.44599e-16 -3.38813e-21 2.16e-11 0 6.33506e-35
2708 1 0.000635 -0.00867182 0 -0.01404 -8.26247e-17 5.92923e-21 2.16e-11 0 2.06859e-35
2794 1 0.000635 -0.00757197 0.000635 -0.01404 1.44602e-16 -3.38813e-21 2.16e-11 0 3.23218e-35
2879 1 0.000635 -0.00647211 0 -0.01404 -1.44605e-16 5.0822e-21 2.16e-11 0 3.23218e-35
2965 1 0.000635 -0.00537226 0.000635 -0.01404 1.44602e-16 -3.38813e-21 2.16e-11 0 3.23218e-35
3051 1 0.000635 -0.00427241 0 -0.01404 -1.03282e-16 5.92923e-21 2.16e-11 0 1.68073e-35
3138 1 0.000635 -0.00317256 0.000635 -0.01404 4.13149e-17 -3.38813e-21 2.16e-11 0 5.17148e-36
3224 1 0.000635 -0.0020727 0 -0.01404 0 6.77626e-21 2.16e-11 0 0
3311 1 0.000635 -0.000972852 0.000635 -0.01404 0 -3.38813e-21 2.16e-11 0 0
3397 1 0.000635 0.000127 0 -0.01404 0 6.77626e-21 2.16e-11 0 0
3484 1 0.000635 0.00122685 0.000635 -0.01404 0 -3.38813e-21 2.16e-11 0 0
3570 1 0.000635 0.0023267 0 -0.01404 -3.38813e-21 5.0822e-21 2.16e-11 5.26426e-25 0
3657 1 0.000635 0.00342656 0.000635 -0.01404 2.06574e-17 -3.38813e-21 2.16e-11 0 1.29287e-36
3743 1 0.000635 0.00452641 0 -0.01404 4.13132e-17 5.92923e-21 2.16e-11 0 1.29287e-35
3830 1 0.000635 0.00562626 0.000635 -0.01404 -1.44595e-16 -3.38813e-21 2.16e-11 0 3.23218e-35
3915 1 0.000635 0.00672611 0 -0.01404 8.26315e-17 5.92923e-21 2.16e-11 0 2.06859e-35
4001 1 0.000635 0.00782597 0.000635 -0.01404 0 -3.38813e-21 2.16e-11 0 0
4086 1 0.000635 0.00892582 0 -0.01404 -6.77626e-21 6.77626e-21 2.16e-11 0 0
4172 1 0.000635 0.0100257 0.000635 -0.01404 1.44599e-16 -3.38813e-21 2.16e-11 0 6.33506e-35
4257 1 0.000635 0.0111255 0 -0.01404 1.28621e-07 2.4835e-18 -4.48004e-06 1.9222e-10 6.33506e-35
4342 1 0.000635 0.0122254 0.000635 -0.01404 2.6032e-06 -2.37325e-06 7.58171e-06 2.31816e-10 8.28689e-14
2454 1 0.000635 -0.0119714 0.001905 -0.01404 1.78057e-06 -3.03223e-05 9.03646e-06 4.024e-10 8.34083e-12
2538 1 0.000635 -0.0108715 0.00127 -0.01404 -2.27086e-07 9.78913e-09 -5.94283e-06 3.4182e-10 6.33506e-35
2624 1 0.000635 -0.00977167 0.001905 -0.01404 -1.44595e-16 1.19221e-17 2.16e-11 0 6.39971e-35
2709 1 0.000635 -0.00867182 0.00127 -0.01404 -8.26264e-17 0 2.16e-11 0 2.06859e-35
2795 1 0.000635 -0.00757197 0.001905 -0.01404 1.44604e-16 1.19221e-17 2.16e-11 0 3.29682e-35
2880 1 0.000635 -0.00647211 0.00127 -0.01404 -1.44605e-16 0 2.16e-11 0 3.23218e-35
2966 1 0.000635 -0.00537226 0.001905 -0.01404 1.44604e-16 1.19238e-17 2.16e-11 0 3.29682e-35
3052 1 0.000635 -0.00427241 0.00127 -0.01404 -1.0328e-16 0 2.16e-11 0 1.68073e-35
3139 1 0.000635 -0.00317256 0.001905 -0.01404 4.13115e-17 1.19229e-17 2.16e-11 0 5.81792e-36
3225 1 0.000635 -0.0020727 0.00127 -0.01404 0 0 2.16e-11 0 0
3312 1 0.000635 -0.000972852 0.001905 -0.01404 0 1.19212e-17 2.16e-11 0 6.46435e-37
3398 1 0.000635 0.000127 0.00127 -0.01404 0 0 2.16e-11 0 0
3485 1 0.000635 0.00122685 0.001905 -0.01404 0 1.19212e-17 2.16e-11 0 6.46435e-37
3571 1 0.000635 0.0023267 0.00127 -0.01404 -6.77626e-21 0 2.16e-11 0 0
3658 1 0.000635 0.00342656 0.001905 -0.01404 2.06591e-17 1.19221e-17 2.16e-11 0 1.93931e-36
3744 1 0.000635 0.00452641 0.00127 -0.01404 4.13115e-17 0 2.16e-11 0 1.29287e-35
3831 1 0.000635 0.00562626 0.001905 -0.01404 -1.44597e-16 1.19221e-17 2.16e-11 0 3.29682e-35
3916 1 0.000635 0.00672611 0.00127 -0.01404 8.26331e-17 0 2.16e-11 0 2.06859e-35
4002 1 0.000635 0.00782597 0.001905 -0.01404 -3.38813e-21 1.19221e-17 2.16e-11 0 6.46435e-37
4087 1 0.000635 0.00892582 0.00127 -0.01404 -6.77626e-21 0 2.16e-11 0 0
4173 1 0.000635 0.0100257 0.001905 -0.01404 1.44599e-16 1.19212e-17 2.16e-11 0 6.39971e-35
4258 1 0.000635 0.0111255 0.00127 -0.01404 1.26674e-07 4.5968e-09 -4.4679e-06 1.91155e-10 6.33506e-35
4343 1 0.000635 0.0122254 0.001905 -0.01404 1.28255e-05 -5.01368e-06 1.03968e-05 2.21725e-10 8.08273e-13
4427 1 0.000635 0.0132956 0.00126975 -0.013786 -3.54529e-11 4.32457e-12 1.05668e-10 2.40427e-10 4.33903e-12
2455 1 0.000635 -0.0119714 0.003175 -0.01404 3.12366e-05 -6.03094e-05 -1.16705e-06 4.10146e-10 3.61323e-11
2539 1 0.000635 -0.0108715 0.00254 -0.01404 -2.29902e-07 1.05359e-08 -5.99126e-06 3.4757e-10 6.33506e-35
2625 1 0.000635 -0.00977167 0.003175 -0.01404 -1.3427e-16 -4.1748e-17 2.16e-11 5.26426e-25 5.81792e-35
2710 1 0.000635 -0.00867182 0.00254 -0.01404 -7.2301e-17 5.97417e-18 2.16e-11 0 1.61609e-35
2796 1 0.000635 -0.00757197 0.003175 -0.01404 1.44602e-16 -4.77053e-17 2.16e-11 5.26426e-25 3.55539e-35
2881 1 0.000635 -0.00647211 0.00254 -0.01404 -1.44605e-16 1.19365e-17 2.16e-11 0 3.23218e-35
2967 1 0.000635 -0.00537226 0.003175 -0.01404 1.44604e-16 -4.7707e-17 2.16e-11 0 3.55539e-35
3053 1 0.000635 -0.00427241 0.00254 -0.01404 -1.03284e-16 1.19373e-17 2.16e-11 5.26426e-25 1.93931e-35
3140 1 0.000635 -0.00317256 0.003175 -0.01404 3.09963e-17 -4.17472e-17 2.16e-11 1.05285e-24 6.46435e-36
3226 1 0.000635 -0.0020727 0.00254 -0.01404 0 1.43996e-20 2.16e-11 0 0
3313 1 0.000635 -0.000972852 0.003175 -0.01404 0 -3.57823e-17 2.16e-11 1.05285e-24 3.23218e-36
3399 1 0.000635 0.000127 0.00254 -0.01404 0 1.35525e-20 2.16e-11 0 0
3486 1 0.000635 0.00122685 0.003175 -0.01404 0 -3.57823e-17 2.16e-11 1.05285e-24 3.23218e-36
3572 1 0.000635 0.0023267 0.00254 -0.01404 -6.77626e-21 1.35525e-20 2.16e-11 0 0
3659 1 0.000635 0.00342656 0.003175 -0.01404 3.09777e-17 -4.17463e-17 2.16e-11 1.05285e-24 6.46435e-36
3745 1 0.000635 0.00452641 0.00254 -0.01404 4.13115e-17 1.19382e-17 2.16e-11 5.26426e-25 1.93931e-35
3832 1 0.000635 0.00562626 0.003175 -0.01404 -1.44595e-16 -4.77053e-17 2.16e-11 5.26426e-25 3.55539e-35
3917 1 0.000635 0.00672611 0.00254 -0.01404 7.23095e-17 5.97502e-18 2.16e-11 0 1.61609e-35
4003 1 0.000635 0.00782597 0.003175 -0.01404 0 -3.57823e-17 2.16e-11 1.05285e-24 3.23218e-36
4088 1 0.000635 0.00892582 0.00254 -0.01404 -8.47033e-21 1.27055e-20 2.16e-11 0 0
4174 1 0.000635 0.0100257 0.003175 -0.01404 1.3427e-16 -4.1748e-17 2.16e-11 5.26426e-25 5.81792e-35
4259 1 0.000635 0.0111255 0.00254 -0.01404 1.12917e-07 3.36615e-08 -4.30803e-06 1.77814e-10 6.33506e-35
4344 1 0.000635 0.0122254 0.003175 -0.01404 5.31472e-05 -7.424e-06 1.82115e-05 2.27095e-10 9.63732e-12
4428 1 0.000635 0.013296 0.00253934 -0.0137861 -1.11049e-11 -1.6401e-12 6.73622e-11 2.49911e-10 2.06588e-11
2456 1 0.000635 -0.0119714 0.004445 -0.01404 -0.000165255 0.00011811 6.24338e-05 3.71512e-10 1.34264e-10
2540 1 0.000635 -0.0108715 0.00381 -0.01404 -1.83144e-07 1.00882e-07 -5.66983e-06 3.10903e-10 4.65433e-35
2626 1 0.000635 -0.00977167 0.004445 -0.01404 -3.8935e-09 -6.74374e-09 -4.11052e-07 3.19558e-12 6.01185e-35
2711 1 0.000635 -0.00867182 0.00381 -0.01404 -8.2623e-17 0 2.16e-11 1.05285e-24 2.06859e-35
2797 1 0.000635 -0.00757197 0.004445 -0.01404 1.44602e-16 5.96282e-17 2.16e-11 5.26426e-25 3.74932e-35
2882 1 0.000635 -0.00647211 0.00381 -0.01404 -1.44605e-16 0 2.16e-11 0 3.23218e-35
2968 1 0.000635 -0.00537226 0.004445 -0.01404 1.44604e-16 5.9629e-17 2.16e-11 5.26426e-25 3.74932e-35
3054 1 0.000635 -0.00427241 0.00381 -0.01404 -1.03291e-16 0 2.16e-11 0 1.68073e-35
3141 1 0.000635 -0.00317256 0.004445 -0.01404 3.09963e-17 5.36693e-17 2.16e-11 1.57928e-24 8.40366e-36
3227 1 0.000635 -0.0020727 0.00381 -0.01404 -6.77626e-21 0 2.16e-11 2.10571e-24 0
3314 1 0.000635 -0.000972852 0.004445 -0.01404 0 4.77053e-17 2.16e-11 1.05285e-24 5.17148e-36
3400 1 0.000635 0.000127 0.00381 -0.01404 0 0 2.16e-11 1.05285e-24 0
3487 1 0.000635 0.00122685 0.004445 -0.01404 0 4.77053e-17 2.16e-11 1.05285e-24 5.17148e-36
3573 1 0.000635 0.0023267 0.00381 -0.01404 0 0 2.16e-11 2.10571e-24 0
3660 1 0.000635 0.00342656 0.004445 -0.01404 3.09811e-17 5.36701e-17 2.16e-11 1.05285e-24 8.40366e-36
3746 1 0.000635 0.00452641 0.00381 -0.01404 4.13217e-17 0 2.16e-11 0 1.29287e-35
3833 1 0.000635 0.00562626 0.004445 -0.01404 -1.44597e-16 5.9629e-17 2.16e-11 5.26426e-25 3.74932e-35
3918 1 0.000635 0.00672611 0.00381 -0.01404 8.26298e-17 0 2.16e-11 1.05285e-24 2.06859e-35
4004 1 0.000635 0.00782597 0.004445 -0.01404 -3.38813e-21 4.77061e-17 2.16e-11 1.05285e-24 5.17148e-36