ITEM: TIMESTEP
1100000
ITEM: NUMBER OF ATOMS
6793
ITEM: BOX BOUNDS ff ff ff
-8.9999999999999997e-02 8.9999999999999997e-02
-8.9999999999999997e-02 8.9999999999999997e-02
-4.0000000000000001e-02 4.0000000000000001e-02
ITEM: ATOMS id type radius x y z fx fy fz c_bendingE c_stretchingE
3385 1 0.000635 0.000121347 -0.0152093 -0.0115051 2.86448e-11 -2.60566e-10 -7.77331e-10 1.729e-09 6.68664e-11
3213 1 0.000635 -0.00207114 -0.0139545 -0.0116909 -5.7768e-11 -1.59594e-10 -7.34843e-10 2.80404e-09 3.11541e-10
3299 1 0.000635 -0.000974395 -0.0145904 -0.0116657 -2.28178e-11 -1.92211e-10 -6.71389e-10 2.64818e-09 9.47704e-11
3386 1 0.000635 0.000126085 -0.0139661 -0.0117701 -5.82001e-11 -1.39335e-11 6.13583e-11 1.99071e-09 3.36498e-11
3472 1 0.000635 0.00121709 -0.0145702 -0.0115291 -2.98796e-10 3.10926e-10 1.31593e-09 8.75317e-10 1.20812e-10
3559 1 0.000635 0.00230919 -0.0139233 -0.0115289 4.53903e-10 -1.06581e-09 -3.68135e-09 2.95698e-10 2.31358e-10
3041 1 0.000635 -0.00426508 -0.0126838 -0.0116846 -9.1568e-11 -1.39796e-10 -8.03083e-10 1.67661e-09 1.11677e-10
3127 1 0.000635 -0.00316725 -0.0133183 -0.0116877 -7.53847e-11 -1.59228e-10 -8.54462e-10 2.03458e-09 2.89069e-10
3214 1 0.000635 -0.0020727 -0.0127 -0.01188 -9.04784e-05 2.79577e-05 -3.61381e-06 2.38507e-09 6.70417e-11
3300 1 0.000635 -0.000973309 -0.0133351 -0.0118564 -7.36766e-12 3.61584e-11 6.93042e-10 1.78974e-09 3.61508e-11
3387 1 0.000635 0.000127 -0.0127 -0.01188 -4.00637e-05 -5.95151e-05 2.75364e-06 1.78581e-10 1.59554e-11
3473 1 0.000635 0.00122599 -0.0133338 -0.0118256 1.8673e-11 -9.76232e-11 -5.261e-10 2.12124e-10 9.00442e-11
3560 1 0.000635 0.0023267 -0.0127 -0.01188 5.48093e-05 -0.00024805 8.63862e-05 3.06128e-10 2.19641e-10
3646 1 0.000635 0.00341288 -0.0133039 -0.0116063 2.08272e-10 -3.61548e-10 -1.59273e-09 2.8293e-10 1.86479e-10
3733 1 0.000635 0.00451778 -0.012682 -0.0116703 1.65331e-10 -2.69191e-10 -1.38777e-09 2.01948e-10 3.04046e-11
3905 1 0.000635 0.00670686 -0.0126606 -0.011455 9.27785e-11 1.01691e-10 -9.9993e-11 8.66726e-11 8.62588e-12
2870 1 0.000635 -0.00646288 -0.0114157 -0.0116888 -5.01917e-11 -1.43853e-10 -7.69927e-10 1.31045e-09 4.78713e-11
2955 1 0.000635 -0.00536368 -0.0120495 -0.011685 -4.2984e-11 -1.12888e-10 -6.18588e-10 1.45189e-09 5.17599e-11
3042 1 0.000635 -0.00427241 -0.01143 -0.01188 1.59234e-06 5.93714e-05 -1.31258e-05 1.25592e-09 1.63573e-11
3128 1 0.000635 -0.00317256 -0.012065 -0.01188 -3.46e-05 8.92547e-05 -1.58279e-05 1.60931e-09 6.22359e-11
3215 1 0.000635 -0.0020727 -0.01143 -0.01188 3.20144e-08 -7.94336e-08 -3.39178e-06 1.09525e-10 5.17148e-36
3301 1 0.000635 -0.000972852 -0.012065 -0.01188 4.02666e-08 -1.8861e-05 -2.88419e-06 1.01291e-10 1.59758e-12
3388 1 0.000635 0.000127 -0.01143 -0.01188 8.06021e-09 -1.69407e-21 -9.68921e-07 1.77766e-11 5.17148e-36
3474 1 0.000635 0.00122685 -0.012065 -0.01188 -3.19517e-08 -1.50768e-07 -3.80286e-06 2.04444e-10 2.51531e-17
3561 1 0.000635 0.0023267 -0.01143 -0.01188 1.04576e-07 -8.57646e-08 -4.93714e-06 2.49562e-10 5.17148e-36
3647 1 0.000635 0.00342656 -0.012065 -0.01188 4.79019e-05 3.30697e-05 1.75785e-06 2.34609e-10 3.0799e-11
3734 1 0.000635 0.00452641 -0.01143 -0.01188 2.21503e-05 1.46035e-05 3.37668e-06 1.68271e-10 6.39515e-12
3820 1 0.000635 0.00562011 -0.0120529 -0.0117072 -1.04657e-10 3.6663e-10 1.63556e-09 1.5424e-10 7.12726e-12
3906 1 0.000635 0.00672162 -0.0114217 -0.0117353 9.33301e-11 -9.77219e-11 -9.65078e-10 1.31259e-10 1.98756e-12
3991 1 0.000635 0.00781192 -0.0120391 -0.0115275 4.81338e-11 1.60252e-10 2.22026e-10 1.38136e-09 8.32106e-11
4077 1 0.000635 0.00891234 -0.0114046 -0.0115476 -3.76179e-11 2.06022e-10 5.81478e-10 1.30222e-09 8.9376e-12
2785 1 0.000635 -0.00756241 -0.010782 -0.0116944 -5.54959e-11 -1.28097e-10 -7.89087e-10 1.22037e-09 7.23382e-11
2956 1 0.000635 -0.00537226 -0.010795 -0.01188 2.9228e-05 3.59569e-05 -1.10319e-05 1.05466e-09 7.55956e-12
3129 1 0.000635 -0.00317256 -0.010795 -0.01188 -6.72819e-09 -6.95346e-08 -3.41908e-06 1.1128e-10 6.46435e-36
3302 1 0.000635 -0.000972852 -0.010795 -0.01188 4.02334e-09 -3.38813e-21 -2.08276e-07 8.20306e-13 5.17148e-36
3475 1 0.000635 0.00122685 -0.010795 -0.01188 7.60617e-09 -1.69407e-21 -4.79562e-07 4.34955e-12 5.17148e-36
3648 1 0.000635 0.00342656 -0.010795 -0.01188 8.82738e-08 -5.62634e-08 -3.93906e-06 1.56029e-10 1.0343e-35
3821 1 0.000635 0.00562626 -0.010795 -0.01188 1.22923e-05 6.05137e-06 3.49963e-06 1.16936e-10 1.70199e-12
3992 1 0.000635 0.00782316 -0.0107904 -0.0117663 -4.29296e-11 2.43319e-10 1.22967e-09 6.88613e-10 4.96032e-11
2615 1 0.000635 -0.00976083 -0.00951327 -0.0116966 -7.54301e-11 -1.32608e-10 -7.38943e-10 1.27985e-09 1.6667e-10
2700 1 0.000635 -0.00866192 -0.0101481 -0.0116988 -4.4824e-11 -1.11016e-10 -7.19649e-10 1.18737e-09 1.09708e-10
2786 1 0.000635 -0.00757197 -0.009525 -0.01188 7.12144e-05 3.85172e-06 -8.24478e-06 7.86642e-10 3.76496e-11
2871 1 0.000635 -0.00647211 -0.01016 -0.01188 5.17981e-05 1.81024e-05 -9.44713e-06 9.14036e-10 1.75279e-11
2957 1 0.000635 -0.00537226 -0.009525 -0.01188 -4.71048e-08 -4.95276e-08 -3.35838e-06 1.07416e-10 3.74932e-35
3043 1 0.000635 -0.00427241 -0.01016 -0.01188 -3.04052e-08 -5.94471e-08 -3.41214e-06 1.10841e-10 2.71503e-35
3130 1 0.000635 -0.00317256 -0.009525 -0.01188 2.0671e-17 0 2.16e-11 1.05285e-24 6.46435e-36
3216 1 0.000635 -0.0020727 -0.01016 -0.01188 -6.77626e-21 0 2.16e-11 0 5.17148e-36
3303 1 0.000635 -0.000972852 -0.009525 -0.01188 0 0 2.16e-11 0 5.17148e-36
3389 1 0.000635 0.000127 -0.01016 -0.01188 0 0 2.16e-11 0 5.17148e-36
3476 1 0.000635 0.00122685 -0.009525 -0.01188 0 0 2.16e-11 0 5.17148e-36
3562 1 0.000635 0.0023267 -0.01016 -0.01188 0 0 2.16e-11 0 5.17148e-36
3649 1 0.000635 0.00342656 -0.009525 -0.01188 4.13115e-17 0 2.16e-11 0 1.0343e-35
3735 1 0.000635 0.00452641 -0.01016 -0.01188 5.45728e-08 -3.74072e-08 -3.12565e-06 9.61202e-11 3.10289e-35
3822 1 0.000635 0.00562626 -0.009525 -0.01188 4.27714e-08 -1.98763e-08 -2.52638e-06 6.31861e-11 3.74932e-35
3907 1 0.000635 0.00672611 -0.01016 -0.01188 1.71995e-05 -1.13334e-05 4.35785e-06 9.45793e-11 1.81664e-12
3993 1 0.000635 0.00782597 -0.009525 -0.01188 8.73976e-06 -3.13423e-05 2.6524e-06 2.75192e-10 3.59415e-12
4078 1 0.000635 0.00892379 -0.0101548 -0.0117729 2.01867e-10 -1.00114e-10 -1.09934e-09 1.32919e-09 5.96095e-11
4164 1 0.000635 0.0100112 -0.00950632 -0.011654 -7.36958e-11 1.43729e-10 5.18203e-10 1.21028e-09 1.11501e-10
2446 1 0.000635 -0.0119612 -0.00824898 -0.0116665 1.05641e-10 1.4012e-10 1.90106e-10 2.05579e-09 1.74726e-11
2530 1 0.000635 -0.0108601 -0.00888045 -0.0116876 -1.07498e-11 -8.02232e-12 -2.5334e-10 1.70756e-09 5.85576e-11
2616 1 0.000635 -0.00977167 -0.008255 -0.01188 -1.64996e-05 -8.05051e-05 1.47843e-05 4.84435e-10 3.73383e-11
2701 1 0.000635 -0.00867182 -0.00889 -0.01188 9.00025e-05 -8.3796e-06 -7.80931e-06 6.44285e-10 6.63491e-11
2787 1 0.000635 -0.00757197 -0.008255 -0.01188 -6.32841e-08 -3.62247e-08 -3.25566e-06 1.00858e-10 4.0079e-35
2872 1 0.000635 -0.00647211 -0.00889 -0.01188 -5.76121e-08 -4.11942e-08 -3.28599e-06 1.02824e-10 3.74932e-35
2958 1 0.000635 -0.00537226 -0.008255 -0.01188 1.44607e-16 -7.15799e-17 2.16e-11 5.26426e-25 4.0079e-35
3044 1 0.000635 -0.00427241 -0.00889 -0.01188 -1.03289e-16 -4.76841e-17 2.16e-11 1.05285e-24 2.71503e-35
3131 1 0.000635 -0.00317256 -0.008255 -0.01188 3.09912e-17 -7.75431e-17 2.16e-11 5.26426e-25 1.87466e-35
3217 1 0.000635 -0.0020727 -0.00889 -0.01188 -3.38813e-21 -4.76866e-17 2.16e-11 0 5.17148e-36
3304 1 0.000635 -0.000972852 -0.008255 -0.01188 0 -7.15833e-17 2.16e-11 0 1.0343e-35
3390 1 0.000635 0.000127 -0.00889 -0.01188 0 -4.76866e-17 2.16e-11 0 5.17148e-36
3477 1 0.000635 0.00122685 -0.008255 -0.01188 0 -7.15833e-17 2.16e-11 0 1.0343e-35
3563 1 0.000635 0.0023267 -0.00889 -0.01188 0 -4.76858e-17 2.16e-11 0 5.17148e-36
3650 1 0.000635 0.00342656 -0.008255 -0.01188 4.13098e-17 -7.15825e-17 2.16e-11 0 1.0343e-35
3736 1 0.000635 0.00452641 -0.00889 -0.01188 4.13115e-17 -4.76841e-17 2.16e-11 0 3.10289e-35
3823 1 0.000635 0.00562626 -0.008255 -0.01188 -1.446e-16 -7.15791e-17 2.16e-11 0 4.0079e-35
3908 1 0.000635 0.00672611 -0.00889 -0.01188 2.43476e-08 -2.64911e-08 -2.22043e-06 4.78047e-11 1.68073e-35
3994 1 0.000635 0.00782597 -0.008255 -0.01188 -1.46667e-08 -6.82003e-08 -2.99817e-06 9.50351e-11 1.0343e-35
4079 1 0.000635 0.00892582 -0.00889 -0.01188 -7.37682e-05 7.74411e-05 -2.004e-05 6.93106e-10 4.01665e-11
4165 1 0.000635 0.0100257 -0.008255 -0.01188 0.000246932 3.55365e-05 6.18791e-05 9.73379e-10 3.65998e-10
2362 1 0.000635 -0.0130599 -0.00761407 -0.0116085 -2.43127e-10 -9.23149e-11 -2.06629e-09 1.8886e-09 6.67125e-11
2447 1 0.000635 -0.0119688 -0.00698427 -0.0117803 6.80728e-11 3.63297e-11 3.25056e-10 2.85174e-10 5.57658e-11
2531 1 0.000635 -0.0108711 -0.00761981 -0.0118406 3.11448e-11 8.33134e-13 -2.89101e-10 3.4718e-10 9.66913e-12
2617 1 0.000635 -0.00977167 -0.006985 -0.01188 -6.52528e-06 -3.71645e-06 -2.27836e-06 8.18545e-11 2.49187e-13
2702 1 0.000635 -0.00867182 -0.00762 -0.01188 -7.58262e-08 -1.96952e-08 -3.29349e-06 1.03306e-10 2.9736e-35
2788 1 0.000635 -0.00757197 -0.006985 -0.01188 1.44605e-16 -2.38958e-17 2.16e-11 0 4.0079e-35
2873 1 0.000635 -0.00647211 -0.00762 -0.01188 -1.44609e-16 2.38967e-17 2.16e-11 0 4.0079e-35
2959 1 0.000635 -0.00537226 -0.006985 -0.01188 1.44605e-16 -2.38958e-17 2.16e-11 0 4.0079e-35
3045 1 0.000635 -0.00427241 -0.00762 -0.01188 -1.13623e-16 2.98573e-17 2.16e-11 0 2.90896e-35
3132 1 0.000635 -0.00317256 -0.006985 -0.01188 3.09912e-17 -2.98573e-17 2.16e-11 0 1.87466e-35
3218 1 0.000635 -0.0020727 -0.00762 -0.01188 -1.69407e-21 2.38958e-17 2.16e-11 0 1.0343e-35
3305 1 0.000635 -0.000972852 -0.006985 -0.01188 0 -2.38967e-17 2.16e-11 0 1.0343e-35
3391 1 0.000635 0.000127 -0.00762 -0.01188 0 2.38967e-17 2.16e-11 0 1.0343e-35
3478 1 0.000635 0.00122685 -0.006985 -0.01188 0 -2.38967e-17 2.16e-11 0 1.0343e-35
3564 1 0.000635 0.0023267 -0.00762 -0.01188 0 2.38967e-17 2.16e-11 0 1.0343e-35
3651 1 0.000635 0.00342656 -0.006985 -0.01188 4.13081e-17 -2.38967e-17 2.16e-11 0 1.0343e-35
3737 1 0.000635 0.00452641 -0.00762 -0.01188 4.13217e-17 2.38958e-17 2.16e-11 0 2.06859e-35
3824 1 0.000635 0.00562626 -0.006985 -0.01188 -1.44599e-16 -2.3895e-17 2.16e-11 0 4.0079e-35
3909 1 0.000635 0.00672611 -0.00762 -0.01188 6.19757e-17 2.38958e-17 2.16e-11 0 2.9736e-35
3995 1 0.000635 0.00782597 -0.006985 -0.01188 -6.77626e-21 -2.38967e-17 2.16e-11 0 1.0343e-35
4080 1 0.000635 0.00892582 -0.00762 -0.01188 -5.83548e-08 -1.3208e-07 -5.50278e-06 4.27723e-10 1.0343e-35
4166 1 0.000635 0.0100257 -0.006985 -0.01188 -7.8862e-05 4.51805e-05 -1.54233e-05 7.57438e-10 3.84591e-11
4251 1 0.000635 0.0111193 -0.00761345 -0.0117471 -3.08829e-11 9.76567e-11 5.26684e-10 1.18594e-09 5.38021e-10
4336 1 0.000635 0.0121782 -0.00694863 -0.0115057 -1.78495e-12 1.81305e-10 2.88866e-10 1.40559e-09 3.80919e-10
2363 1 0.000635 -0.0130532 -0.0063449 -0.0116151 2.67879e-10 3.28882e-11 1.1521e-09 3.29906e-10 8.64381e-11
2448 1 0.000635 -0.0119705 -0.00571542 -0.0118349 3.04786e-10 9.42122e-11 2.55295e-09 1.9582e-10 7.717e-11
2532 1 0.000635 -0.0108715 -0.00635 -0.01188 -5.56363e-05 -6.27873e-05 5.97952e-06 1.02263e-10 2.60008e-11
2618 1 0.000635 -0.00977167 -0.005715 -0.01188 -2.92478e-09 5.06587e-09 -8.78218e-07 1.4599e-11 6.85221e-35
2703 1 0.000635 -0.00867182 -0.00635 -0.01188 -2.58947e-10 4.48509e-10 -3.47279e-07 2.27994e-12 2.9736e-35
2789 1 0.000635 -0.00757197 -0.005715 -0.01188 1.44602e-16 4.76832e-17 2.16e-11 0 3.74932e-35
2874 1 0.000635 -0.00647211 -0.00635 -0.01188 -1.44609e-16 7.15816e-17 2.16e-11 0 4.0079e-35
2960 1 0.000635 -0.00537226 -0.005715 -0.01188 1.44604e-16 4.76841e-17 2.16e-11 5.26426e-25 3.74932e-35
3046 1 0.000635 -0.00427241 -0.00635 -0.01188 -1.13621e-16 7.75431e-17 2.16e-11 0 2.90896e-35
3133 1 0.000635 -0.00317256 -0.005715 -0.01188 2.0671e-17 4.76858e-17 2.16e-11 5.26426e-25 6.46435e-36
3219 1 0.000635 -0.0020727 -0.00635 -0.01188 -5.0822e-21 7.15842e-17 2.16e-11 0 1.0343e-35
3306 1 0.000635 -0.000972852 -0.005715 -0.01188 0 4.76866e-17 2.16e-11 0 5.17148e-36
3392 1 0.000635 0.000127 -0.00635 -0.01188 0 7.1585e-17 2.16e-11 0 1.0343e-35
3479 1 0.000635 0.00122685 -0.005715 -0.01188 0 4.76866e-17 2.16e-11 0 5.17148e-36
3565 1 0.000635 0.0023267 -0.00635 -0.01188 0 7.15842e-17 2.16e-11 0 1.0343e-35
3652 1 0.000635 0.00342656 -0.005715 -0.01188 4.13098e-17 4.76858e-17 2.16e-11 0 1.0343e-35
3738 1 0.000635 0.00452641 -0.00635 -0.01188 4.13183e-17 7.15816e-17 2.16e-11 0 2.06859e-35
3825 1 0.000635 0.00562626 -0.005715 -0.01188 -1.44597e-16 4.76841e-17 2.16e-11 0 3.74932e-35
3910 1 0.000635 0.00672611 -0.00635 -0.01188 6.19774e-17 7.15825e-17 2.16e-11 0 2.9736e-35
3996 1 0.000635 0.00782597 -0.005715 -0.01188 -6.77626e-21 4.76849e-17 2.16e-11 0 5.17148e-36
4081 1 0.000635 0.00892582 -0.00635 -0.01188 -1.13405e-08 -1.96424e-08 -1.17351e-06 2.61069e-11 1.0343e-35
4167 1 0.000635 0.0100257 -0.005715 -0.01188 -3.48599e-08 -6.03792e-08 -3.30767e-06 2.11567e-10 6.85221e-35
4252 1 0.000635 0.0111255 -0.00635 -0.01188 -0.000230874 -2.64048e-05 -4.35485e-05 1.07808e-09 1.7283e-10
4337 1 0.000635 0.012222 -0.00571656 -0.0118231 1.38889e-11 3.90162e-11 -1.09163e-10 1.51866e-09 4.22029e-10
2364 1 0.000635 -0.0130402 -0.00507574 -0.0115981 1.89369e-10 8.864e-11 1.09289e-09 2.61888e-10 2.08008e-10
2533 1 0.000635 -0.0108715 -0.00508 -0.01188 -1.39268e-05 -8.16173e-06 -3.3222e-06 2.01161e-10 1.15178e-12
2704 1 0.000635 -0.00867182 -0.00508 -0.01188 -6.19774e-17 -2.3845e-17 2.16e-11 0 1.42216e-35
2875 1 0.000635 -0.00647211 -0.00508 -0.01188 -1.44605e-16 -2.38442e-17 2.16e-11 0 3.49075e-35
3047 1 0.000635 -0.00427241 -0.00508 -0.01188 -1.03287e-16 -2.38433e-17 2.16e-11 1.57928e-24 2.45645e-35
3220 1 0.000635 -0.0020727 -0.00508 -0.01188 -3.38813e-21 -2.38442e-17 2.16e-11 0 2.58574e-36
3393 1 0.000635 0.000127 -0.00508 -0.01188 0 -2.38442e-17 2.16e-11 0 2.58574e-36
3566 1 0.000635 0.0023267 -0.00508 -0.01188 -3.38813e-21 -2.38459e-17 2.16e-11 0 2.58574e-36
3739 1 0.000635 0.00452641 -0.00508 -0.01188 4.13081e-17 -2.38433e-17 2.16e-11 5.26426e-25 2.84431e-35
3911 1 0.000635 0.00672611 -0.00508 -0.01188 6.19859e-17 -2.38442e-17 2.16e-11 0 1.42216e-35
4082 1 0.000635 0.00892582 -0.00508 -0.01188 -8.47033e-21 -2.3845e-17 2.16e-11 0 2.58574e-36
4253 1 0.000635 0.0111255 -0.00508 -0.01188 -4.21578e-05 2.41184e-05 -9.7363e-06 7.30937e-10 1.0901e-11
4422 1 0.000635 0.0133044 -0.00507789 -0.0116569 8.18122e-11 5.98632e-11 -2.84167e-10 1.95015e-09 1.19189e-10
2365 1 0.000635 -0.0130245 -0.00380812 -0.0115632 3.03172e-10 3.56274e-11 9.5608e-10 3.4383e-10 7.88293e-11
2449 1 0.000635 -0.0119714 -0.004445 -0.01188 -0.000163576 -0.000115896 5.65718e-05 3.06604e-10 1.30648e-10
2534 1 0.000635 -0.0108715 -0.00381 -0.01188 -1.53546e-07 -8.58551e-08 -5.20864e-06 2.61547e-10 4.65433e-35
2619 1 0.000635 -0.00977167 -0.004445 -0.01188 -3.45035e-09 5.97618e-09 -3.9749e-07 2.98796e-12 6.01185e-35
2705 1 0.000635 -0.00867182 -0.00381 -0.01188 -8.2623e-17 0 2.16e-11 1.05285e-24 2.06859e-35
2790 1 0.000635 -0.00757197 -0.004445 -0.01188 1.44602e-16 -5.96282e-17 2.16e-11 5.26426e-25 3.74932e-35
2876 1 0.000635 -0.00647211 -0.00381 -0.01188 -1.44605e-16 0 2.16e-11 0 3.23218e-35
2961 1 0.000635 -0.00537226 -0.004445 -0.01188 1.44604e-16 -5.9629e-17 2.16e-11 5.26426e-25 3.74932e-35
3048 1 0.000635 -0.00427241 -0.00381 -0.01188 -1.03291e-16 0 2.16e-11 0 1.68073e-35
3134 1 0.000635 -0.00317256 -0.004445 -0.01188 3.09963e-17 -5.36693e-17 2.16e-11 1.57928e-24 8.40366e-36
3221 1 0.000635 -0.0020727 -0.00381 -0.01188 -6.77626e-21 0 2.16e-11 2.10571e-24 0
3307 1 0.000635 -0.000972852 -0.004445 -0.01188 0 -4.77053e-17 2.16e-11 1.05285e-24 5.17148e-36
3394 1 0.000635 0.000127 -0.00381 -0.01188 0 0 2.16e-11 1.05285e-24 0
3480 1 0.000635 0.00122685 -0.004445 -0.01188 0 -4.77053e-17 2.16e-11 1.05285e-24 5.17148e-36
3567 1 0.000635 0.0023267 -0.00381 -0.01188 0 0 2.16e-11 2.10571e-24 0
3653 1 0.000635 0.00342656 -0.004445 -0.01188 3.09811e-17 -5.36701e-17 2.16e-11 1.05285e-24 8.40366e-36
3740 1 0.000635 0.00452641 -0.00381 -0.01188 4.13217e-17 7.70372e-34 2.16e-11 0 1.29287e-35
3826 1 0.000635 0.00562626 -0.004445 -0.01188 -1.44597e-16 -5.9629e-17 2.16e-11 5.26426e-25 3.74932e-35
3912 1 0.000635 0.00672611 -0.00381 -0.01188 8.26298e-17 0 2.16e-11 1.05285e-24 2.06859e-35
3997 1 0.000635 0.00782597 -0.004445 -0.01188 -3.38813e-21 -4.77061e-17 2.16e-11 1.05285e-24 5.17148e-36
4083 1 0.000635 0.00892582 -0.00381 -0.01188 -6.77626e-21 0 2.16e-11 1.05285e-24 0
4168 1 0.000635 0.0100257 -0.004445 -0.01188 1.34992e-08 2.33812e-08 -5.02351e-07 4.78555e-12 6.01185e-35
4254 1 0.000635 0.0111255 -0.00381 -0.01188 8.78645e-08 -2.07465e-08 -3.9015e-06 1.45248e-10 4.65433e-35
4338 1 0.000635 0.0122254 -0.004445 -0.01188 0.000116946 -0.00012432 2.6639e-05 1.62681e-09 1.63581e-10
4423 1 0.000635 0.0133084 -0.00380861 -0.0116808 -1.78319e-10 5.80121e-11 8.41107e-10 1.14347e-09 1.14365e-10
2366 1 0.000635 -0.0130269 -0.00253898 -0.0115706 5.15339e-10 2.35954e-11 1.47865e-09 3.4255e-10 2.27053e-11
2450 1 0.000635 -0.0119714 -0.003175 -0.01188 1.9212e-05 4.39126e-05 2.98833e-06 3.31514e-10 1.86356e-11
2535 1 0.000635 -0.0108715 -0.00254 -0.01188 -1.93621e-07 -3.48616e-09 -5.50646e-06 2.92503e-10 6.33506e-35
2620 1 0.000635 -0.00977167 -0.003175 -0.01188 -1.3427e-16 4.1748e-17 2.16e-11 5.26426e-25 5.81792e-35
2706 1 0.000635 -0.00867182 -0.00254 -0.01188 -7.2301e-17 -5.97417e-18 2.16e-11 0 1.61609e-35
2791 1 0.000635 -0.00757197 -0.003175 -0.01188 1.44602e-16 4.77053e-17 2.16e-11 5.26426e-25 3.55539e-35
2877 1 0.000635 -0.00647211 -0.00254 -0.01188 -1.44605e-16 -1.19365e-17 2.16e-11 0 3.23218e-35
2962 1 0.000635 -0.00537226 -0.003175 -0.01188 1.44604e-16 4.7707e-17 2.16e-11 0 3.55539e-35
3049 1 0.000635 -0.00427241 -0.00254 -0.01188 -1.03284e-16 -1.19373e-17 2.16e-11 5.26426e-25 1.93931e-35
3135 1 0.000635 -0.00317256 -0.003175 -0.01188 3.09963e-17 4.17472e-17 2.16e-11 1.05285e-24 6.46435e-36
3222 1 0.000635 -0.0020727 -0.00254 -0.01188 0 -1.43996e-20 2.16e-11 0 0
3308 1 0.000635 -0.000972852 -0.003175 -0.01188 0 3.57823e-17 2.16e-11 1.05285e-24 3.23218e-36
3395 1 0.000635 0.000127 -0.00254 -0.01188 0 -1.35525e-20 2.16e-11 0 0
3481 1 0.000635 0.00122685 -0.003175 -0.01188 0 3.57823e-17 2.16e-11 1.05285e-24 3.23218e-36
3568 1 0.000635 0.0023267 -0.00254 -0.01188 -6.77626e-21 -1.35525e-20 2.16e-11 0 0
3654 1 0.000635 0.00342656 -0.003175 -0.01188 3.09777e-17 4.17463e-17 2.16e-11 1.05285e-24 6.46435e-36
3741 1 0.000635 0.00452641 -0.00254 -0.01188 4.13115e-17 -1.19382e-17 2.16e-11 5.26426e-25 1.93931e-35
3827 1 0.000635 0.00562626 -0.003175 -0.01188 -1.44595e-16 4.77053e-17 2.16e-11 5.26426e-25 3.55539e-35
3913 1 0.000635 0.00672611 -0.00254 -0.01188 7.23095e-17 -5.97502e-18 2.16e-11 0 1.61609e-35
3998 1 0.000635 0.00782597 -0.003175 -0.01188 0 3.57823e-17 2.16e-11 1.05285e-24 3.23218e-36
4084 1 0.000635 0.00892582 -0.00254 -0.01188 -8.47033e-21 -1.27055e-20 2.16e-11 0 0
4169 1 0.000635 0.0100257 -0.003175 -0.01188 1.3427e-16 4.1748e-17 2.16e-11 5.26426e-25 5.81792e-35
4255 1 0.000635 0.0111255 -0.00254 -0.01188 8.21562e-08 -3.21344e-08 -3.71213e-06 1.31776e-10 6.33506e-35
4339 1 0.000635 0.0122254 -0.003175 -0.01188 5.4701e-05 7.57883e-06 1.56922e-05 1.71639e-10 1.00175e-11
4424 1 0.000635 0.0133036 -0.0025394 -0.0116605 -9.98334e-11 2.36756e-11 5.48834e-10 1.90608e-10 1.97796e-11
2367 1 0.000635 -0.0130277 -0.00126953 -0.0115726 -5.60481e-11 7.8094e-12 -1.97108e-10 3.27899e-10 1.25436e-11
2451 1 0.000635 -0.0119714 -0.001905 -0.01188 -1.31049e-06 2.45924e-05 9.19322e-06 3.33054e-10 5.5019e-12
2536 1 0.000635 -0.0108715 -0.00127 -0.01188 -1.89847e-07 -3.78117e-09 -5.4421e-06 2.85506e-10 6.33506e-35
2621 1 0.000635 -0.00977167 -0.001905 -0.01188 -1.44592e-16 -1.19229e-17 2.16e-11 5.26426e-25 6.39971e-35
2707 1 0.000635 -0.00867182 -0.00127 -0.01188 -7.2301e-17 5.96909e-18 2.16e-11 5.26426e-25 1.61609e-35
2792 1 0.000635 -0.00757197 -0.001905 -0.01188 1.44605e-16 -1.19229e-17 2.16e-11 0 3.29682e-35
2878 1 0.000635 -0.00647211 -0.00127 -0.01188 -1.44605e-16 1.19331e-17 2.16e-11 0 3.23218e-35
2963 1 0.000635 -0.00537226 -0.001905 -0.01188 1.44602e-16 -1.19246e-17 2.16e-11 0 3.29682e-35
3050 1 0.000635 -0.00427241 -0.00127 -0.01188 -1.13613e-16 5.96993e-18 2.16e-11 0 2.13324e-35
3136 1 0.000635 -0.00317256 -0.001905 -0.01188 4.13081e-17 -1.19229e-17 2.16e-11 0 5.81792e-36
3223 1 0.000635 -0.0020727 -0.00127 -0.01188 0 7.6233e-21 2.16e-11 0 0
3309 1 0.000635 -0.000972852 -0.001905 -0.01188 0 -1.19229e-17 2.16e-11 0 6.46435e-37
3396 1 0.000635 0.000127 -0.00127 -0.01188 0 6.77626e-21 2.16e-11 0 0
3482 1 0.000635 0.00122685 -0.001905 -0.01188 0 -1.19229e-17 2.16e-11 0 6.46435e-37
3569 1 0.000635 0.0023267 -0.00127 -0.01188 -6.77626e-21 6.77626e-21 2.16e-11 0 0
3655 1 0.000635 0.00342656 -0.001905 -0.01188 2.06608e-17 -1.19229e-17 2.16e-11 0 1.93931e-36
3742 1 0.000635 0.00452641 -0.00127 -0.01188 4.13149e-17 1.19331e-17 2.16e-11 5.26426e-25 1.93931e-35
3828 1 0.000635 0.00562626 -0.001905 -0.01188 -1.44599e-16 -1.19229e-17 2.16e-11 0 3.29682e-35
3914 1 0.000635 0.00672611 -0.00127 -0.01188 7.23078e-17 5.96909e-18 2.16e-11 5.26426e-25 1.61609e-35
3999 1 0.000635 0.00782597 -0.001905 -0.01188 -6.77626e-21 -1.19229e-17 2.16e-11 5.26426e-25 6.46435e-37
4085 1 0.000635 0.00892582 -0.00127 -0.01188 -6.77626e-21 6.77626e-21 2.16e-11 0 0
4170 1 0.000635 0.0100257 -0.001905 -0.01188 1.44599e-16 -1.19229e-17 2.16e-11 0 6.39971e-35
4256 1 0.000635 0.0111255 -0.00127 -0.01188 9.46345e-08 -6.69735e-09 -3.88435e-06 1.44001e-10 6.33506e-35
4340 1 0.000635 0.0122254 -0.001905 -0.01188 1.65106e-05 3.00748e-06 9.79939e-06 1.65782e-10 9.93833e-13
4425 1 0.000635 0.0133028 -0.00126977 -0.0116582 3.34352e-10 1.38356e-11 -1.21367e-09 1.80678e-10 3.81719e-12
2452 1 0.000635 -0.0119714 -0.000635 -0.01188 -1.17447e-05 7.82173e-06 1.24562e-05 3.21947e-10 1.08294e-12
2622 1 0.000635 -0.00977167 -0.000635 -0.01188 -1.44599e-16 -8.47033e-21 2.16e-11 0 6.33506e-35
2793 1 0.000635 -0.00757197 -0.000635 -0.01188 1.44604e-16 -1.19339e-17 2.16e-11 5.26426e-25 3.23218e-35
2964 1 0.000635 -0.00537226 -0.000635 -0.01188 1.44604e-16 -1.19365e-17 2.16e-11 0 3.23218e-35
3137 1 0.000635 -0.00317256 -0.000635 -0.01188 4.13183e-17 -8.47033e-21 2.16e-11 0 5.17148e-36
3310 1 0.000635 -0.000972852 -0.000635 -0.01188 0 -8.47033e-21 2.16e-11 0 0
3483 1 0.000635 0.00122685 -0.000635 -0.01188 0 -8.47033e-21 2.16e-11 0 0
3656 1 0.000635 0.00342656 -0.000635 -0.01188 3.09811e-17 -5.97078e-18 2.16e-11 5.26426e-25 3.23218e-36
3829 1 0.000635 0.00562626 -0.000635 -0.01188 -1.44597e-16 -1.19339e-17 2.16e-11 5.26426e-25 3.23218e-35
4000 1 0.000635 0.00782597 -0.000635 -0.01188 0 -8.47033e-21 2.16e-11 0 0
4171 1 0.000635 0.0100257 -0.000635 -0.01188 1.44599e-16 -8.47033e-21 2.16e-11 0 6.33506e-35
4341 1 0.000635 0.0122254 -0.000635 -0.01188 3.73696e-06 1.79692e-06 6.89716e-06 1.74577e-10 8.40217e-14
4426 1 0.000635 0.0133029 -1.09979e-15 -0.011659 -2.09232e-10 -5.11362e-14 9.39622e-10 1.83087e-10 1.72891e-12
2368 1 0.000635 -0.0130277 5.05744e-16 -0.0115724 1.64509e-10 -1.05326e-13 4.56091e-10 3.23808e-10 1.05764e-11
2453 1 0.000635 -0.0119714 0.000635 -0.01188 -1.17447e-05 -7.82173e-06 1.24562e-05 3.21947e-10 1.08294e-12
2537 1 0.000635 -0.0108715 0 -0.01188 -1.88465e-07 -4.44193e-17 -5.42273e-06 2.83432e-10 6.33506e-35
2623 1 0.000635 -0.00977167 0.000635 -0.01188 -1.44599e-16 -3.38813e-21 2.16e-11 0 6.33506e-35
2708 1 0.000635 -0.00867182 0 -0.01188 -8.26247e-17 5.92923e-21 2.16e-11 0 2.06859e-35
2794 1 0.000635 -0.00757197 0.000635 -0.01188 1.44602e-16 -3.38813e-21 2.16e-11 0 3.23218e-35
2879 1 0.000635 -0.00647211 0 -0.01188 -1.44605e-16 5.0822e-21 2.16e-11 0 3.23218e-35
2965 1 0.000635 -0.00537226 0.000635 -0.01188 1.44602e-16 -3.38813e-21 2.16e-11 0 3.23218e-35
3051 1 0.000635 -0.00427241 0 -0.01188 -1.03282e-16 5.92923e-21 2.16e-11 0 1.68073e-35
3138 1 0.000635 -0.00317256 0.000635 -0.01188 4.13149e-17 -3.38813e-21 2.16e-11 0 5.17148e-36
3224 1 0.000635 -0.0020727 0 -0.01188 0 6.77626e-21 2.16e-11 0 0
3311 1 0.000635 -0.000972852 0.000635 -0.01188 0 -3.38813e-21 2.16e-11 0 0
3397 1 0.000635 0.000127 0 -0.01188 0 6.77626e-21 2.16e-11 0 0
3484 1 0.000635 0.00122685 0.000635 -0.01188 0 -3.38813e-21 2.16e-11 0 0
3570 1 0.000635 0.0023267 0 -0.01188 -3.38813e-21 5.0822e-21 2.16e-11 5.26426e-25 0
3657 1 0.000635 0.00342656 0.000635 -0.01188 2.06574e-17 -3.38813e-21 2.16e-11 0 1.29287e-36
3743 1 0.000635 0.00452641 0 -0.01188 4.13132e-17 5.92923e-21 2.16e-11 0 1.29287e-35
3830 1 0.000635 0.00562626 0.000635 -0.01188 -1.44595e-16 -3.38813e-21 2.16e-11 0 3.23218e-35
3915 1 0.000635 0.00672611 0 -0.01188 8.26315e-17 5.92923e-21 2.16e-11 0 2.06859e-35
4001 1 0.000635 0.00782597 0.000635 -0.01188 0 -3.38813e-21 2.16e-11 0 0
4086 1 0.000635 0.00892582 0 -0.01188 -6.77626e-21 6.77626e-21 2.16e-11 0 0
4172 1 0.000635 0.0100257 0.000635 -0.01188 1.44599e-16 -3.38813e-21 2.16e-11 0 6.33506e-35
4257 1 0.000635 0.0111255 0 -0.01188 9.72892e-08 -1.31011e-17 -3.91245e-06 1.4612e-10 6.33506e-35
4342 1 0.000635 0.0122254 0.000635 -0.01188 3.73696e-06 -1.79692e-06 6.89716e-06 1.74577e-10 8.40217e-14
2369 1 0.000635 -0.0130277 0.00126953 -0.0115726 -5.60713e-11 -7.7615e-12 -1.97098e-10 3.27899e-10 1.25436e-11
2454 1 0.000635 -0.0119714 0.001905 -0.01188 -1.31049e-06 -2.45924e-05 9.19322e-06 3.33054e-10 5.5019e-12
2538 1 0.000635 -0.0108715 0.00127 -0.01188 -1.89847e-07 3.78117e-09 -5.4421e-06 2.85506e-10 6.33506e-35
2624 1 0.000635 -0.00977167 0.001905 -0.01188 -1.44595e-16 1.19221e-17 2.16e-11 0 6.39971e-35
2709 1 0.000635 -0.00867182 0.00127 -0.01188 -8.26264e-17 0 2.16e-11 0 2.06859e-35
2795 1 0.000635 -0.00757197 0.001905 -0.01188 1.44604e-16 1.19221e-17 2.16e-11 0 3.29682e-35
2880 1 0.000635 -0.00647211 0.00127 -0.01188 -1.44605e-16 0 2.16e-11 0 3.23218e-35
2966 1 0.000635 -0.00537226 0.001905 -0.01188 1.44604e-16 1.19238e-17 2.16e-11 0 3.29682e-35
3052 1 0.000635 -0.00427241 0.00127 -0.01188 -1.0328e-16 0 2.16e-11 0 1.68073e-35
3139 1 0.000635 -0.00317256 0.001905 -0.01188 4.13115e-17 1.19229e-17 2.16e-11 0 5.81792e-36
3225 1 0.000635 -0.0020727 0.00127 -0.01188 0 0 2.16e-11 0 0
3312 1 0.000635 -0.000972852 0.001905 -0.01188 0 1.19212e-17 2.16e-11 0 6.46435e-37
3398 1 0.000635 0.000127 0.00127 -0.01188 0 0 2.16e-11 0 0
3485 1 0.000635 0.00122685 0.001905 -0.01188 0 1.19212e-17 2.16e-11 0 6.46435e-37
3571 1 0.000635 0.0023267 0.00127 -0.01188 -6.77626e-21 0 2.16e-11 0 0
3658 1 0.000635 0.00342656 0.001905 -0.01188 2.06591e-17 1.19221e-17 2.16e-11 0 1.93931e-36
3744 1 0.000635 0.00452641 0.00127 -0.01188 4.13115e-17 0 2.16e-11 0 1.29287e-35
3831 1 0.000635 0.00562626 0.001905 -0.01188 -1.44597e-16 1.19221e-17 2.16e-11 0 3.29682e-35
3916 1 0.000635 0.00672611 0.00127 -0.01188 8.26331e-17 0 2.16e-11 0 2.06859e-35
4002 1 0.000635 0.00782597 0.001905 -0.01188 -3.38813e-21 1.19221e-17 2.16e-11 0 6.46435e-37
4087 1 0.000635 0.00892582 0.00127 -0.01188 -6.77626e-21 0 2.16e-11 0 0
4173 1 0.000635 0.0100257 0.001905 -0.01188 1.44599e-16 1.19212e-17 2.16e-11 0 6.39971e-35
4258 1 0.000635 0.0111255 0.00127 -0.01188 9.46345e-08 6.69735e-09 -3.88435e-06 1.44001e-10 6.33506e-35
4343 1 0.000635 0.0122254 0.001905 -0.01188 1.65106e-05 -3.00748e-06 9.79939e-06 1.65782e-10 9.93833e-13
4427 1 0.000635 0.0133028 0.00126977 -0.0116582 3.34359e-10 -1.36957e-11 -1.21366e-09 1.80678e-10 3.81719e-12
2370 1 0.000635 -0.0130269 0.00253898 -0.0115706 5.15405e-10 -2.3443e-11 1.47863e-09 3.4255e-10 2.27053e-11
2455 1 0.000635 -0.0119714 0.003175 -0.01188 1.9212e-05 -4.39126e-05 2.98833e-06 3.31514e-10 1.86356e-11
2539 1 0.000635 -0.0108715 0.00254 -0.01188 -1.93621e-07 3.48616e-09 -5.50646e-06 2.92503e-10 6.33506e-35
2625 1 0.000635 -0.00977167 0.003175 -0.01188 -1.3427e-16 -4.1748e-17 2.16e-11 5.26426e-25 5.81792e-35
2710 1 0.000635 -0.00867182 0.00254 -0.01188 -7.2301e-17 5.97417e-18 2.16e-11 0 1.61609e-35
2796 1 0.000635 -0.00757197 0.003175 -0.01188 1.44602e-16 -4.77053e-17 2.16e-11 5.26426e-25 3.55539e-35
2881 1 0.000635 -0.00647211 0.00254 -0.01188 -1.44605e-16 1.19365e-17 2.16e-11 0 3.23218e-35
2967 1 0.000635 -0.00537226 0.003175 -0.01188 1.44604e-16 -4.7707e-17 2.16e-11 0 3.55539e-35
3053 1 0.000635 -0.00427241 0.00254 -0.01188 -1.03284e-16 1.19373e-17 2.16e-11 5.26426e-25 1.93931e-35
3140 1 0.000635 -0.00317256 0.003175 -0.01188 3.09963e-17 -4.17472e-17 2.16e-11 1.05285e-24 6.46435e-36
3226 1 0.000635 -0.0020727 0.00254 -0.01188 0 1.43996e-20 2.16e-11 0 0
3313 1 0.000635 -0.000972852 0.003175 -0.01188 0 -3.57823e-17 2.16e-11 1.05285e-24 3.23218e-36
3399 1 0.000635 0.000127 0.00254 -0.01188 0 1.35525e-20 2.16e-11 0 0
3486 1 0.000635 0.00122685 0.003175 -0.01188 0 -3.57823e-17 2.16e-11 1.05285e-24 3.23218e-36
3572 1 0.000635 0.0023267 0.00254 -0.01188 -6.77626e-21 1.35525e-20 2.16e-11 0 0
3659 1 0.000635 0.00342656 0.003175 -0.01188 3.09777e-17 -4.17463e-17 2.16e-11 1.05285e-24 6.46435e-36
3745 1 0.000635 0.00452641 0.00254 -0.01188 4.13115e-17 1.19382e-17 2.16e-11 5.26426e-25 1.93931e-35
3832 1 0.000635 0.00562626 0.003175 -0.01188 -1.44595e-16 -4.77053e-17 2.16e-11 5.26426e-25 3.55539e-35
3917 1 0.000635 0.00672611 0.00254 -0.01188 7.23095e-17 5.97502e-18 2.16e-11 0 1.61609e-35
4003 1 0.000635 0.00782597 0.003175 -0.01188 0 -3.57823e-17 2.16e-11 1.05285e-24 3.23218e-36
4088 1 0.000635 0.00892582 0.00254 -0.01188 -8.47033e-21 1.27055e-20 2.16e-11 0 0
4174 1 0.000635 0.0100257 0.003175 -0.01188 1.3427e-16 -4.1748e-17 2.16e-11 5.26426e-25 5.81792e-35
4259 1 0.000635 0.0111255 0.00254 -0.01188 8.21562e-08 3.21344e-08 -3.71213e-06 1.31776e-10 6.33506e-35
4344 1 0.000635 0.0122254 0.003175 -0.01188 5.4701e-05 -7.57883e-06 1.56922e-05 1.71639e-10 1.00175e-11
4428 1 0.000635 0.0133036 0.0025394 -0.0116605 -9.98828e-11 -2.3805e-11 5.48824e-10 1.90608e-10 1.97796e-11
2371 1 0.000635 -0.0130245 0.00380812 -0.0115632 3.03166e-10 -3.58265e-11 9.5608e-10 3.4383e-10 7.88293e-11
2456 1 0.000635 -0.0119714 0.004445 -0.01188 -0.000163576 0.000115896 5.65718e-05 3.06604e-10 1.30648e-10
2540 1 0.000635 -0.0108715 0.00381 -0.01188 -1.53546e-07 8.58551e-08 -5.20864e-06 2.61547e-10 4.65433e-35