ITEM: TIMESTEP
1430000
ITEM: NUMBER OF ATOMS
6793
ITEM: BOX BOUNDS ff ff ff
-8.9999999999999997e-02 8.9999999999999997e-02
-8.9999999999999997e-02 8.9999999999999997e-02
-4.0000000000000001e-02 4.0000000000000001e-02
ITEM: ATOMS id type radius x y z fx fy fz c_bendingE c_stretchingE
3385 1 0.000635 0.000119134 -0.0151928 -0.0149867 -1.2564e-08 1.06778e-07 2.75732e-07 2.61877e-09 7.34937e-11
3213 1 0.000635 -0.00207119 -0.0139527 -0.015243 1.35025e-08 -1.25865e-08 -5.83813e-08 4.26917e-09 3.77683e-10
3299 1 0.000635 -0.000974441 -0.0145872 -0.0152026 2.17231e-08 -2.12069e-08 -3.63725e-09 3.99578e-09 1.16486e-10
3386 1 0.000635 0.000125844 -0.0139639 -0.0153119 4.38699e-08 -1.17225e-07 -6.28016e-07 2.9594e-09 4.04757e-11
3472 1 0.000635 0.00121169 -0.0145483 -0.0150083 1.28974e-08 -1.02274e-08 -6.23545e-08 1.36908e-09 1.57739e-10
3559 1 0.000635 0.00229514 -0.0138876 -0.0149885 4.42912e-08 -4.16476e-08 -1.03707e-07 5.46374e-10 2.2728e-10
3041 1 0.000635 -0.00426511 -0.0126833 -0.0152466 -3.99816e-08 -1.67138e-08 -1.37396e-07 2.62728e-09 1.42103e-10
3127 1 0.000635 -0.00316725 -0.0133172 -0.0152464 -9.17438e-09 -2.53142e-08 -1.5085e-07 3.16568e-09 3.76405e-10
3214 1 0.000635 -0.0020727 -0.0127 -0.015444 -9.96649e-05 1.37727e-05 -2.9975e-06 3.65524e-09 7.98894e-11
3300 1 0.000635 -0.000973338 -0.0133352 -0.0154155 1.70096e-08 -9.32468e-09 2.38867e-08 2.80254e-09 4.12041e-11
3387 1 0.000635 0.000127 -0.0127 -0.015444 -4.89585e-05 -5.96679e-05 2.72973e-06 2.98707e-10 1.79327e-11
3473 1 0.000635 0.00122581 -0.0133337 -0.0153855 -3.09365e-09 3.80588e-08 1.83829e-07 3.68325e-10 1.38646e-10
3560 1 0.000635 0.0023267 -0.0127 -0.015444 7.27648e-05 -0.000245855 0.000110463 4.90511e-10 2.59375e-10
3646 1 0.000635 0.00340604 -0.0132901 -0.0151153 -2.36913e-08 1.66374e-07 3.89544e-07 4.69882e-10 2.78251e-10
3733 1 0.000635 0.00451346 -0.0126739 -0.0151911 7.31005e-08 -9.64194e-08 -4.06827e-07 3.13005e-10 4.31275e-11
2870 1 0.000635 -0.00646266 -0.0114153 -0.0152506 5.73619e-09 -1.19015e-09 6.09393e-09 2.03761e-09 5.50818e-11
2955 1 0.000635 -0.00536366 -0.0120493 -0.015248 1.52633e-08 2.03643e-08 9.29348e-08 2.27488e-09 6.31153e-11
3042 1 0.000635 -0.00427241 -0.01143 -0.015444 -7.66583e-07 6.45139e-05 -1.64471e-05 2.01491e-09 2.03137e-11
3128 1 0.000635 -0.00317256 -0.012065 -0.015444 -4.13327e-05 9.81293e-05 -1.96885e-05 2.56121e-09 7.90194e-11
3215 1 0.000635 -0.0020727 -0.01143 -0.015444 3.42359e-08 -8.24889e-08 -3.51474e-06 1.17643e-10 5.17148e-36
3301 1 0.000635 -0.000972852 -0.012065 -0.015444 3.96299e-08 -2.81676e-05 -2.74994e-06 1.14399e-10 3.57489e-12
3388 1 0.000635 0.000127 -0.01143 -0.015444 1.01928e-08 0 -1.16474e-06 2.57097e-11 5.17148e-36
3474 1 0.000635 0.00122685 -0.012065 -0.015444 -3.13854e-08 -4.19828e-06 -4.75632e-06 3.21821e-10 6.83507e-14
3561 1 0.000635 0.0023267 -0.01143 -0.015444 2.06659e-07 -1.23378e-07 -6.23735e-06 4.10907e-10 5.17148e-36
3647 1 0.000635 0.00342656 -0.012065 -0.015444 5.84679e-05 4.09549e-05 4.80155e-07 3.69229e-10 4.64003e-11
3734 1 0.000635 0.00452641 -0.01143 -0.015444 2.54664e-05 2.02327e-05 2.91944e-06 2.52147e-10 9.51415e-12
3820 1 0.000635 0.00561731 -0.0120478 -0.0152378 4.65239e-09 7.66773e-08 2.41231e-07 2.35527e-10 8.47262e-12
3906 1 0.000635 0.00671971 -0.0114182 -0.0152718 2.53308e-08 1.94509e-08 4.52079e-08 1.94099e-10 1.87233e-12
3991 1 0.000635 0.00780457 -0.0120241 -0.0150092 3.16509e-08 9.04937e-08 2.7754e-07 2.08964e-09 8.86811e-11
4077 1 0.000635 0.00890707 -0.0113938 -0.0150471 9.33996e-08 -3.09903e-08 -1.25617e-07 1.98255e-09 1.27411e-11
2785 1 0.000635 -0.00756186 -0.0107812 -0.015253 1.22723e-09 2.35553e-09 6.58418e-08 1.87393e-09 8.02407e-11
2956 1 0.000635 -0.00537226 -0.010795 -0.015444 2.95897e-05 3.85063e-05 -1.39609e-05 1.67003e-09 8.45045e-12
3129 1 0.000635 -0.00317256 -0.010795 -0.015444 -5.99046e-09 -7.0837e-08 -3.47447e-06 1.14934e-10 6.46435e-36
3302 1 0.000635 -0.000972852 -0.010795 -0.015444 4.28318e-09 -3.38813e-21 -2.51591e-07 1.19688e-12 5.17148e-36
3475 1 0.000635 0.00122685 -0.010795 -0.015444 9.1558e-09 1.69407e-21 -5.15652e-07 5.0295e-12 5.17148e-36
3648 1 0.000635 0.00342656 -0.010795 -0.015444 1.35186e-07 -7.95968e-08 -4.72012e-06 2.25603e-10 1.0343e-35
3821 1 0.000635 0.00562626 -0.010795 -0.015444 1.30062e-05 9.80356e-06 3.32986e-06 1.784e-10 2.38989e-12
3992 1 0.000635 0.00782189 -0.0107877 -0.0153048 -2.01127e-10 6.14303e-08 3.45284e-07 1.02406e-09 5.82412e-11
2615 1 0.000635 -0.00975894 -0.00951088 -0.0152436 -3.46498e-08 -9.51728e-08 -4.1908e-07 1.83822e-09 2.17235e-10
2700 1 0.000635 -0.00866087 -0.0101466 -0.0152523 6.71259e-08 3.34073e-08 1.6751e-07 1.78826e-09 1.22511e-10
2786 1 0.000635 -0.00757197 -0.009525 -0.015444 7.47089e-05 3.71705e-06 -1.06523e-05 1.16474e-09 4.18786e-11
2871 1 0.000635 -0.00647211 -0.01016 -0.015444 5.36838e-05 1.9055e-05 -1.20618e-05 1.40578e-09 1.90955e-11
2957 1 0.000635 -0.00537226 -0.009525 -0.015444 -4.55464e-08 -5.25955e-08 -3.41541e-06 1.1107e-10 3.74932e-35
3043 1 0.000635 -0.00427241 -0.01016 -0.015444 -2.92682e-08 -6.08951e-08 -3.44972e-06 1.13309e-10 2.71503e-35
3130 1 0.000635 -0.00317256 -0.009525 -0.015444 2.0671e-17 0 2.16e-11 1.05285e-24 6.46435e-36
3216 1 0.000635 -0.0020727 -0.01016 -0.015444 -6.77626e-21 0 2.16e-11 0 5.17148e-36
3303 1 0.000635 -0.000972852 -0.009525 -0.015444 0 0 2.16e-11 0 5.17148e-36
3389 1 0.000635 0.000127 -0.01016 -0.015444 0 0 2.16e-11 0 5.17148e-36
3476 1 0.000635 0.00122685 -0.009525 -0.015444 0 0 2.16e-11 0 5.17148e-36
3562 1 0.000635 0.0023267 -0.01016 -0.015444 0 0 2.16e-11 0 5.17148e-36
3649 1 0.000635 0.00342656 -0.009525 -0.015444 4.13115e-17 0 2.16e-11 0 1.0343e-35
3735 1 0.000635 0.00452641 -0.01016 -0.015444 8.31284e-08 -5.38537e-08 -3.74931e-06 1.39109e-10 3.10289e-35
3822 1 0.000635 0.00562626 -0.009525 -0.015444 6.00975e-08 -3.27355e-08 -3.04618e-06 9.16464e-11 3.74932e-35
3907 1 0.000635 0.00672611 -0.01016 -0.015444 2.23799e-05 -7.41437e-06 4.95753e-06 1.41135e-10 3.19112e-12
3993 1 0.000635 0.00782597 -0.009525 -0.015444 1.68921e-05 -2.89098e-05 3.54607e-06 3.88135e-10 3.37706e-12
4078 1 0.000635 0.00892294 -0.0101524 -0.0153142 -3.71271e-08 6.26288e-08 4.10971e-07 1.99641e-09 1.07082e-10
4164 1 0.000635 0.0100057 -0.00949867 -0.015177 -4.17069e-08 4.24452e-08 2.10924e-07 1.79844e-09 1.85506e-10
2446 1 0.000635 -0.0119585 -0.00824703 -0.0152029 1.5027e-07 1.50806e-07 8.18744e-07 2.97052e-09 2.56675e-11
2530 1 0.000635 -0.0108574 -0.00887772 -0.0152281 -7.02309e-09 -1.61809e-08 -8.25126e-08 2.15011e-09 8.90027e-11
2616 1 0.000635 -0.00977167 -0.008255 -0.015444 -2.77913e-05 -9.22671e-05 1.89928e-05 6.68441e-10 4.91939e-11
2701 1 0.000635 -0.00867182 -0.00889 -0.015444 0.000100065 -8.03952e-06 -1.08266e-05 9.1849e-10 8.16389e-11
2787 1 0.000635 -0.00757197 -0.008255 -0.015444 -6.31429e-08 -4.48487e-08 -3.4536e-06 1.13656e-10 4.0079e-35
2872 1 0.000635 -0.00647211 -0.00889 -0.015444 -5.62652e-08 -4.68687e-08 -3.39811e-06 1.09934e-10 3.74932e-35
2958 1 0.000635 -0.00537226 -0.008255 -0.015444 1.44607e-16 -7.15799e-17 2.16e-11 5.26426e-25 4.0079e-35
3044 1 0.000635 -0.00427241 -0.00889 -0.015444 -1.03289e-16 -4.76841e-17 2.16e-11 1.05285e-24 2.71503e-35
3131 1 0.000635 -0.00317256 -0.008255 -0.015444 3.09912e-17 -7.75431e-17 2.16e-11 5.26426e-25 1.87466e-35
3217 1 0.000635 -0.0020727 -0.00889 -0.015444 -3.38813e-21 -4.76866e-17 2.16e-11 0 5.17148e-36
3304 1 0.000635 -0.000972852 -0.008255 -0.015444 0 -7.15833e-17 2.16e-11 0 1.0343e-35
3390 1 0.000635 0.000127 -0.00889 -0.015444 0 -4.76866e-17 2.16e-11 0 5.17148e-36
3477 1 0.000635 0.00122685 -0.008255 -0.015444 0 -7.15833e-17 2.16e-11 0 1.0343e-35
3563 1 0.000635 0.0023267 -0.00889 -0.015444 0 -4.76858e-17 2.16e-11 0 5.17148e-36
3650 1 0.000635 0.00342656 -0.008255 -0.015444 4.13098e-17 -7.15825e-17 2.16e-11 0 1.0343e-35
3736 1 0.000635 0.00452641 -0.00889 -0.015444 4.13115e-17 -4.76841e-17 2.16e-11 0 3.10289e-35
3823 1 0.000635 0.00562626 -0.008255 -0.015444 -1.446e-16 -7.15791e-17 2.16e-11 0 4.0079e-35
3908 1 0.000635 0.00672611 -0.00889 -0.015444 3.36875e-08 -3.95247e-08 -2.6632e-06 6.87075e-11 1.68073e-35
3994 1 0.000635 0.00782597 -0.008255 -0.015444 -2.0615e-08 -9.79286e-08 -3.58562e-06 1.35134e-10 1.0343e-35
4079 1 0.000635 0.00892582 -0.00889 -0.015444 -9.16645e-05 0.000105044 -3.01038e-05 9.94757e-10 6.68366e-11
4165 1 0.000635 0.0100257 -0.008255 -0.015444 0.000347995 6.79571e-05 9.39568e-05 1.41516e-09 7.48223e-10
2362 1 0.000635 -0.0130564 -0.00761213 -0.0151366 -1.84095e-08 -6.57868e-08 -2.06509e-07 2.41829e-09 9.21155e-11
2447 1 0.000635 -0.0119682 -0.00698407 -0.0153337 2.18916e-08 -3.86942e-09 -1.04387e-07 3.95172e-10 8.75062e-11
2531 1 0.000635 -0.010871 -0.00761972 -0.0154001 3.32725e-08 9.7181e-09 3.59642e-08 4.67106e-10 1.78428e-11
2617 1 0.000635 -0.00977167 -0.006985 -0.015444 -7.64786e-06 -4.35607e-06 -2.45434e-06 1.00267e-10 3.42239e-13
2702 1 0.000635 -0.00867182 -0.00762 -0.015444 -8.05846e-08 -2.74958e-08 -3.59229e-06 1.23379e-10 2.9736e-35
2788 1 0.000635 -0.00757197 -0.006985 -0.015444 1.44605e-16 -2.38958e-17 2.16e-11 0 4.0079e-35
2873 1 0.000635 -0.00647211 -0.00762 -0.015444 -1.44609e-16 2.38967e-17 2.16e-11 0 4.0079e-35
2959 1 0.000635 -0.00537226 -0.006985 -0.015444 1.44605e-16 -2.38958e-17 2.16e-11 0 4.0079e-35
3045 1 0.000635 -0.00427241 -0.00762 -0.015444 -1.13623e-16 2.98573e-17 2.16e-11 0 2.90896e-35
3132 1 0.000635 -0.00317256 -0.006985 -0.015444 3.09912e-17 -2.98573e-17 2.16e-11 0 1.87466e-35
3218 1 0.000635 -0.0020727 -0.00762 -0.015444 -1.69407e-21 2.38958e-17 2.16e-11 0 1.0343e-35
3305 1 0.000635 -0.000972852 -0.006985 -0.015444 0 -2.38967e-17 2.16e-11 0 1.0343e-35
3391 1 0.000635 0.000127 -0.00762 -0.015444 0 2.38967e-17 2.16e-11 0 1.0343e-35
3478 1 0.000635 0.00122685 -0.006985 -0.015444 0 -2.38967e-17 2.16e-11 0 1.0343e-35
3564 1 0.000635 0.0023267 -0.00762 -0.015444 0 2.38967e-17 2.16e-11 0 1.0343e-35
3651 1 0.000635 0.00342656 -0.006985 -0.015444 4.13081e-17 -2.38967e-17 2.16e-11 0 1.0343e-35
3737 1 0.000635 0.00452641 -0.00762 -0.015444 4.13217e-17 2.38958e-17 2.16e-11 0 2.06859e-35
3824 1 0.000635 0.00562626 -0.006985 -0.015444 -1.44599e-16 -2.3895e-17 2.16e-11 0 4.0079e-35
3909 1 0.000635 0.00672611 -0.00762 -0.015444 6.19757e-17 2.38958e-17 2.16e-11 0 2.9736e-35
3995 1 0.000635 0.00782597 -0.006985 -0.015444 -6.77626e-21 -2.38967e-17 2.16e-11 0 1.0343e-35
4080 1 0.000635 0.00892582 -0.00762 -0.015444 -8.34774e-08 -1.8854e-07 -6.48935e-06 6.00297e-10 1.0343e-35
4166 1 0.000635 0.0100257 -0.006985 -0.015444 -0.000100347 5.73332e-05 -2.12442e-05 1.08991e-09 6.25186e-11
4251 1 0.000635 0.0111172 -0.00761081 -0.015288 -1.96758e-08 6.16784e-09 9.30892e-08 1.73879e-09 1.16252e-09
4336 1 0.000635 0.0121587 -0.00693284 -0.0150014 3.10561e-08 -3.33117e-08 -8.56933e-08 2.10787e-09 9.53989e-10
2363 1 0.000635 -0.0130475 -0.00634309 -0.0151452 2.07592e-07 -3.84474e-08 5.46256e-07 4.65161e-10 1.10038e-10
2448 1 0.000635 -0.0119705 -0.0057156 -0.0153974 -2.9916e-08 5.45385e-09 -2.63782e-07 3.05589e-10 1.1081e-10
2532 1 0.000635 -0.0108715 -0.00635 -0.015444 -6.30587e-05 -7.49113e-05 7.514e-06 1.34225e-10 3.6735e-11
2618 1 0.000635 -0.00977167 -0.005715 -0.015444 -3.53697e-09 6.12622e-09 -9.71784e-07 1.78817e-11 6.85221e-35
2703 1 0.000635 -0.00867182 -0.00635 -0.015444 -8.79247e-11 1.5229e-10 -3.87283e-07 2.83559e-12 2.9736e-35
2789 1 0.000635 -0.00757197 -0.005715 -0.015444 1.44602e-16 4.76832e-17 2.16e-11 0 3.74932e-35
2874 1 0.000635 -0.00647211 -0.00635 -0.015444 -1.44609e-16 7.15816e-17 2.16e-11 0 4.0079e-35
2960 1 0.000635 -0.00537226 -0.005715 -0.015444 1.44604e-16 4.76841e-17 2.16e-11 5.26426e-25 3.74932e-35
3046 1 0.000635 -0.00427241 -0.00635 -0.015444 -1.13621e-16 7.75431e-17 2.16e-11 0 2.90896e-35
3133 1 0.000635 -0.00317256 -0.005715 -0.015444 2.0671e-17 4.76858e-17 2.16e-11 5.26426e-25 6.46435e-36
3219 1 0.000635 -0.0020727 -0.00635 -0.015444 -5.0822e-21 7.15842e-17 2.16e-11 0 1.0343e-35
3306 1 0.000635 -0.000972852 -0.005715 -0.015444 0 4.76866e-17 2.16e-11 0 5.17148e-36
3392 1 0.000635 0.000127 -0.00635 -0.015444 0 7.1585e-17 2.16e-11 0 1.0343e-35
3479 1 0.000635 0.00122685 -0.005715 -0.015444 0 4.76866e-17 2.16e-11 0 5.17148e-36
3565 1 0.000635 0.0023267 -0.00635 -0.015444 0 7.15842e-17 2.16e-11 0 1.0343e-35
3652 1 0.000635 0.00342656 -0.005715 -0.015444 4.13098e-17 4.76858e-17 2.16e-11 0 1.0343e-35
3738 1 0.000635 0.00452641 -0.00635 -0.015444 4.13183e-17 7.15816e-17 2.16e-11 0 2.06859e-35
3825 1 0.000635 0.00562626 -0.005715 -0.015444 -1.44597e-16 4.76841e-17 2.16e-11 0 3.74932e-35
3910 1 0.000635 0.00672611 -0.00635 -0.015444 6.19774e-17 7.15825e-17 2.16e-11 0 2.9736e-35
3996 1 0.000635 0.00782597 -0.005715 -0.015444 -6.77626e-21 4.76849e-17 2.16e-11 0 5.17148e-36
4081 1 0.000635 0.00892582 -0.00635 -0.015444 -1.68178e-08 -2.91293e-08 -1.37845e-06 3.60676e-11 1.0343e-35
4167 1 0.000635 0.0100257 -0.005715 -0.015444 -5.24222e-08 -9.07979e-08 -3.91547e-06 2.99379e-10 6.85221e-35
4252 1 0.000635 0.0111255 -0.00635 -0.015444 -0.00034142 -2.75093e-05 -7.95175e-05 1.5772e-09 3.82549e-10
4337 1 0.000635 0.0122209 -0.00571755 -0.015381 1.41382e-08 -1.83289e-08 -1.15186e-07 2.28673e-09 9.00479e-10
2364 1 0.000635 -0.0130315 -0.00507447 -0.0151291 -1.6179e-07 -6.07429e-09 -5.12743e-07 3.81847e-10 2.45041e-10
2533 1 0.000635 -0.0108715 -0.00508 -0.015444 -1.82972e-05 -1.07129e-05 -3.65676e-06 2.4855e-10 1.99153e-12
2704 1 0.000635 -0.00867182 -0.00508 -0.015444 -6.19774e-17 -2.3845e-17 2.16e-11 0 1.42216e-35
2875 1 0.000635 -0.00647211 -0.00508 -0.015444 -1.44605e-16 -2.38442e-17 2.16e-11 0 3.49075e-35
3047 1 0.000635 -0.00427241 -0.00508 -0.015444 -1.03287e-16 -2.38433e-17 2.16e-11 1.57928e-24 2.45645e-35
3220 1 0.000635 -0.0020727 -0.00508 -0.015444 -3.38813e-21 -2.38442e-17 2.16e-11 0 2.58574e-36
3393 1 0.000635 0.000127 -0.00508 -0.015444 0 -2.38442e-17 2.16e-11 0 2.58574e-36
3566 1 0.000635 0.0023267 -0.00508 -0.015444 -3.38813e-21 -2.38459e-17 2.16e-11 0 2.58574e-36
3739 1 0.000635 0.00452641 -0.00508 -0.015444 4.13081e-17 -2.38433e-17 2.16e-11 5.26426e-25 2.84431e-35
3911 1 0.000635 0.00672611 -0.00508 -0.015444 6.19859e-17 -2.38442e-17 2.16e-11 0 1.42216e-35
4082 1 0.000635 0.00892582 -0.00508 -0.015444 -8.47033e-21 -2.3845e-17 2.16e-11 0 2.58574e-36
4253 1 0.000635 0.0111255 -0.00508 -0.015444 -4.90003e-05 2.79861e-05 -1.19931e-05 1.07807e-09 1.47605e-11
4422 1 0.000635 0.0132964 -0.00507792 -0.0151825 1.37384e-08 -1.42095e-08 -9.07775e-08 2.9424e-09 2.37923e-10
2365 1 0.000635 -0.0130154 -0.00380737 -0.0150987 1.79977e-07 -9.70188e-09 3.94763e-07 4.55115e-10 1.51089e-10
2449 1 0.000635 -0.0119714 -0.004445 -0.015444 -0.000164348 -0.000116602 6.35263e-05 3.89871e-10 1.3232e-10
2534 1 0.000635 -0.0108715 -0.00381 -0.015444 -1.91923e-07 -1.02412e-07 -5.79003e-06 3.24458e-10 4.65433e-35
2619 1 0.000635 -0.00977167 -0.004445 -0.015444 -4.27622e-09 7.40662e-09 -4.10682e-07 3.19006e-12 6.01185e-35
2705 1 0.000635 -0.00867182 -0.00381 -0.015444 -8.2623e-17 0 2.16e-11 1.05285e-24 2.06859e-35
2790 1 0.000635 -0.00757197 -0.004445 -0.015444 1.44602e-16 -5.96282e-17 2.16e-11 5.26426e-25 3.74932e-35
2876 1 0.000635 -0.00647211 -0.00381 -0.015444 -1.44605e-16 0 2.16e-11 0 3.23218e-35
2961 1 0.000635 -0.00537226 -0.004445 -0.015444 1.44604e-16 -5.9629e-17 2.16e-11 5.26426e-25 3.74932e-35
3048 1 0.000635 -0.00427241 -0.00381 -0.015444 -1.03291e-16 0 2.16e-11 0 1.68073e-35
3134 1 0.000635 -0.00317256 -0.004445 -0.015444 3.09963e-17 -5.36693e-17 2.16e-11 1.57928e-24 8.40366e-36
3221 1 0.000635 -0.0020727 -0.00381 -0.015444 -6.77626e-21 0 2.16e-11 2.10571e-24 0
3307 1 0.000635 -0.000972852 -0.004445 -0.015444 0 -4.77053e-17 2.16e-11 1.05285e-24 5.17148e-36
3394 1 0.000635 0.000127 -0.00381 -0.015444 0 0 2.16e-11 1.05285e-24 0
3480 1 0.000635 0.00122685 -0.004445 -0.015444 0 -4.77053e-17 2.16e-11 1.05285e-24 5.17148e-36
3567 1 0.000635 0.0023267 -0.00381 -0.015444 0 0 2.16e-11 2.10571e-24 0
3653 1 0.000635 0.00342656 -0.004445 -0.015444 3.09811e-17 -5.36701e-17 2.16e-11 1.05285e-24 8.40366e-36
3740 1 0.000635 0.00452641 -0.00381 -0.015444 4.13217e-17 7.70372e-34 2.16e-11 0 1.29287e-35
3826 1 0.000635 0.00562626 -0.004445 -0.015444 -1.44597e-16 -5.9629e-17 2.16e-11 5.26426e-25 3.74932e-35
3912 1 0.000635 0.00672611 -0.00381 -0.015444 8.26298e-17 0 2.16e-11 1.05285e-24 2.06859e-35
3997 1 0.000635 0.00782597 -0.004445 -0.015444 -3.38813e-21 -4.77061e-17 2.16e-11 1.05285e-24 5.17148e-36
4083 1 0.000635 0.00892582 -0.00381 -0.015444 -6.77626e-21 0 2.16e-11 1.05285e-24 0
4168 1 0.000635 0.0100257 -0.004445 -0.015444 1.96328e-08 3.4005e-08 -5.56372e-07 5.883e-12 6.01185e-35
4254 1 0.000635 0.0111255 -0.00381 -0.015444 1.3073e-07 -3.36694e-08 -4.67425e-06 2.09461e-10 4.65433e-35
4338 1 0.000635 0.0122254 -0.004445 -0.015444 0.000144649 -0.000208993 4.27748e-05 2.43794e-09 3.02817e-10
4423 1 0.000635 0.0132976 -0.00380852 -0.0151932 5.50297e-08 -3.83214e-09 -2.06318e-07 1.77693e-09 1.2235e-10
2366 1 0.000635 -0.0130167 -0.00253859 -0.0151016 -5.44298e-08 -4.77298e-09 -1.63883e-07 4.33628e-10 4.51985e-11
2450 1 0.000635 -0.0119714 -0.003175 -0.015444 3.16142e-05 6.37092e-05 -1.46028e-06 4.39017e-10 4.00381e-11
2535 1 0.000635 -0.0108715 -0.00254 -0.015444 -2.36877e-07 -1.81415e-08 -6.08429e-06 3.58695e-10 6.33506e-35
2620 1 0.000635 -0.00977167 -0.003175 -0.015444 -1.3427e-16 4.1748e-17 2.16e-11 5.26426e-25 5.81792e-35
2706 1 0.000635 -0.00867182 -0.00254 -0.015444 -7.2301e-17 -5.97417e-18 2.16e-11 0 1.61609e-35
2791 1 0.000635 -0.00757197 -0.003175 -0.015444 1.44602e-16 4.77053e-17 2.16e-11 5.26426e-25 3.55539e-35
2877 1 0.000635 -0.00647211 -0.00254 -0.015444 -1.44605e-16 -1.19365e-17 2.16e-11 0 3.23218e-35
2962 1 0.000635 -0.00537226 -0.003175 -0.015444 1.44604e-16 4.7707e-17 2.16e-11 0 3.55539e-35
3049 1 0.000635 -0.00427241 -0.00254 -0.015444 -1.03284e-16 -1.19373e-17 2.16e-11 5.26426e-25 1.93931e-35
3135 1 0.000635 -0.00317256 -0.003175 -0.015444 3.09963e-17 4.17472e-17 2.16e-11 1.05285e-24 6.46435e-36
3222 1 0.000635 -0.0020727 -0.00254 -0.015444 0 -1.43996e-20 2.16e-11 0 0
3308 1 0.000635 -0.000972852 -0.003175 -0.015444 0 3.57823e-17 2.16e-11 1.05285e-24 3.23218e-36
3395 1 0.000635 0.000127 -0.00254 -0.015444 0 -1.35525e-20 2.16e-11 0 0
3481 1 0.000635 0.00122685 -0.003175 -0.015444 0 3.57823e-17 2.16e-11 1.05285e-24 3.23218e-36
3568 1 0.000635 0.0023267 -0.00254 -0.015444 -6.77626e-21 -1.35525e-20 2.16e-11 0 0
3654 1 0.000635 0.00342656 -0.003175 -0.015444 3.09777e-17 4.17463e-17 2.16e-11 1.05285e-24 6.46435e-36
3741 1 0.000635 0.00452641 -0.00254 -0.015444 4.13115e-17 -1.19382e-17 2.16e-11 5.26426e-25 1.93931e-35
3827 1 0.000635 0.00562626 -0.003175 -0.015444 -1.44595e-16 4.77053e-17 2.16e-11 5.26426e-25 3.55539e-35
3913 1 0.000635 0.00672611 -0.00254 -0.015444 7.23095e-17 -5.97502e-18 2.16e-11 0 1.61609e-35
3998 1 0.000635 0.00782597 -0.003175 -0.015444 0 3.57823e-17 2.16e-11 1.05285e-24 3.23218e-36
4084 1 0.000635 0.00892582 -0.00254 -0.015444 -8.47033e-21 -1.27055e-20 2.16e-11 0 0
4169 1 0.000635 0.0100257 -0.003175 -0.015444 1.3427e-16 4.1748e-17 2.16e-11 5.26426e-25 5.81792e-35
4255 1 0.000635 0.0111255 -0.00254 -0.015444 1.28617e-07 -3.14922e-08 -4.5701e-06 2.00315e-10 6.33506e-35
4339 1 0.000635 0.0122254 -0.003175 -0.015444 4.86149e-05 6.09757e-06 1.82783e-05 2.58456e-10 8.06022e-12
4424 1 0.000635 0.0132922 -0.00253937 -0.0151751 6.88156e-09 -1.62049e-09 -2.95638e-08 2.84757e-10 1.76354e-11
2367 1 0.000635 -0.0130162 -0.00126937 -0.0150997 -4.32525e-08 -1.32601e-09 -1.33573e-07 4.20331e-10 1.97816e-11
2451 1 0.000635 -0.0119714 -0.001905 -0.015444 4.08577e-06 3.0796e-05 8.49096e-06 4.2024e-10 8.63282e-12
2536 1 0.000635 -0.0108715 -0.00127 -0.015444 -2.36598e-07 -1.18691e-08 -6.06367e-06 3.56231e-10 6.33506e-35
2621 1 0.000635 -0.00977167 -0.001905 -0.015444 -1.44592e-16 -1.19229e-17 2.16e-11 5.26426e-25 6.39971e-35
2707 1 0.000635 -0.00867182 -0.00127 -0.015444 -7.2301e-17 5.96909e-18 2.16e-11 5.26426e-25 1.61609e-35
2792 1 0.000635 -0.00757197 -0.001905 -0.015444 1.44605e-16 -1.19229e-17 2.16e-11 0 3.29682e-35
2878 1 0.000635 -0.00647211 -0.00127 -0.015444 -1.44605e-16 1.19331e-17 2.16e-11 0 3.23218e-35
2963 1 0.000635 -0.00537226 -0.001905 -0.015444 1.44602e-16 -1.19246e-17 2.16e-11 0 3.29682e-35
3050 1 0.000635 -0.00427241 -0.00127 -0.015444 -1.13613e-16 5.96993e-18 2.16e-11 0 2.13324e-35
3136 1 0.000635 -0.00317256 -0.001905 -0.015444 4.13081e-17 -1.19229e-17 2.16e-11 0 5.81792e-36
3223 1 0.000635 -0.0020727 -0.00127 -0.015444 0 7.6233e-21 2.16e-11 0 0
3309 1 0.000635 -0.000972852 -0.001905 -0.015444 0 -1.19229e-17 2.16e-11 0 6.46435e-37
3396 1 0.000635 0.000127 -0.00127 -0.015444 0 6.77626e-21 2.16e-11 0 0
3482 1 0.000635 0.00122685 -0.001905 -0.015444 0 -1.19229e-17 2.16e-11 0 6.46435e-37
3569 1 0.000635 0.0023267 -0.00127 -0.015444 -6.77626e-21 6.77626e-21 2.16e-11 0 0
3655 1 0.000635 0.00342656 -0.001905 -0.015444 2.06608e-17 -1.19229e-17 2.16e-11 0 1.93931e-36
3742 1 0.000635 0.00452641 -0.00127 -0.015444 4.13149e-17 1.19331e-17 2.16e-11 5.26426e-25 1.93931e-35
3828 1 0.000635 0.00562626 -0.001905 -0.015444 -1.44599e-16 -1.19229e-17 2.16e-11 0 3.29682e-35
3914 1 0.000635 0.00672611 -0.00127 -0.015444 7.23078e-17 5.96909e-18 2.16e-11 5.26426e-25 1.61609e-35
3999 1 0.000635 0.00782597 -0.001905 -0.015444 -6.77626e-21 -1.19229e-17 2.16e-11 5.26426e-25 6.46435e-37
4085 1 0.000635 0.00892582 -0.00127 -0.015444 -6.77626e-21 6.77626e-21 2.16e-11 0 0
4170 1 0.000635 0.0100257 -0.001905 -0.015444 1.44599e-16 -1.19229e-17 2.16e-11 0 6.39971e-35
4256 1 0.000635 0.0111255 -0.00127 -0.015444 1.42103e-07 -2.56694e-09 -4.71707e-06 2.13417e-10 6.33506e-35
4340 1 0.000635 0.0122254 -0.001905 -0.015444 1.00801e-05 5.83719e-06 1.01545e-05 2.52571e-10 6.82432e-13
4425 1 0.000635 0.0132923 -0.00126977 -0.0151765 -3.48189e-08 1.62194e-10 1.27719e-07 2.74971e-10 4.00923e-12
2452 1 0.000635 -0.0119714 -0.000635 -0.015444 -5.53047e-06 9.63517e-06 1.1968e-05 4.08371e-10 9.92429e-13
2622 1 0.000635 -0.00977167 -0.000635 -0.015444 -1.44599e-16 -8.47033e-21 2.16e-11 0 6.33506e-35
2793 1 0.000635 -0.00757197 -0.000635 -0.015444 1.44604e-16 -1.19339e-17 2.16e-11 5.26426e-25 3.23218e-35
2964 1 0.000635 -0.00537226 -0.000635 -0.015444 1.44604e-16 -1.19365e-17 2.16e-11 0 3.23218e-35
3137 1 0.000635 -0.00317256 -0.000635 -0.015444 4.13183e-17 -8.47033e-21 2.16e-11 0 5.17148e-36
3310 1 0.000635 -0.000972852 -0.000635 -0.015444 0 -8.47033e-21 2.16e-11 0 0
3483 1 0.000635 0.00122685 -0.000635 -0.015444 0 -8.47033e-21 2.16e-11 0 0
3656 1 0.000635 0.00342656 -0.000635 -0.015444 3.09811e-17 -5.97078e-18 2.16e-11 5.26426e-25 3.23218e-36
3829 1 0.000635 0.00562626 -0.000635 -0.015444 -1.44597e-16 -1.19339e-17 2.16e-11 5.26426e-25 3.23218e-35
4000 1 0.000635 0.00782597 -0.000635 -0.015444 0 -8.47033e-21 2.16e-11 0 0
4171 1 0.000635 0.0100257 -0.000635 -0.015444 1.44599e-16 -8.47033e-21 2.16e-11 0 6.33506e-35
4341 1 0.000635 0.0122254 -0.000635 -0.015444 2.62835e-06 2.32677e-06 7.86286e-06 2.63118e-10 8.20631e-14
4426 1 0.000635 0.0132927 3.35318e-15 -0.015178 -3.86497e-08 -6.21668e-15 1.46602e-07 2.77652e-10 1.79234e-12
2368 1 0.000635 -0.013016 -7.84271e-15 -0.015099 7.76657e-08 3.55279e-14 1.74819e-07 4.1477e-10 1.42945e-11
2453 1 0.000635 -0.0119714 0.000635 -0.015444 -5.53048e-06 -9.63517e-06 1.1968e-05 4.08371e-10 9.92429e-13
2537 1 0.000635 -0.0108715 0 -0.015444 -2.3789e-07 4.82545e-16 -6.07395e-06 3.57473e-10 6.33506e-35
2623 1 0.000635 -0.00977167 0.000635 -0.015444 -1.44599e-16 -3.38813e-21 2.16e-11 0 6.33506e-35
2708 1 0.000635 -0.00867182 0 -0.015444 -8.26247e-17 5.92923e-21 2.16e-11 0 2.06859e-35
2794 1 0.000635 -0.00757197 0.000635 -0.015444 1.44602e-16 -3.38813e-21 2.16e-11 0 3.23218e-35
2879 1 0.000635 -0.00647211 0 -0.015444 -1.44605e-16 5.0822e-21 2.16e-11 0 3.23218e-35
2965 1 0.000635 -0.00537226 0.000635 -0.015444 1.44602e-16 -3.38813e-21 2.16e-11 0 3.23218e-35
3051 1 0.000635 -0.00427241 0 -0.015444 -1.03282e-16 5.92923e-21 2.16e-11 0 1.68073e-35
3138 1 0.000635 -0.00317256 0.000635 -0.015444 4.13149e-17 -3.38813e-21 2.16e-11 0 5.17148e-36
3224 1 0.000635 -0.0020727 0 -0.015444 0 6.77626e-21 2.16e-11 0 0
3311 1 0.000635 -0.000972852 0.000635 -0.015444 0 -3.38813e-21 2.16e-11 0 0
3397 1 0.000635 0.000127 0 -0.015444 0 6.77626e-21 2.16e-11 0 0
3484 1 0.000635 0.00122685 0.000635 -0.015444 0 -3.38813e-21 2.16e-11 0 0
3570 1 0.000635 0.0023267 0 -0.015444 -3.38813e-21 5.0822e-21 2.16e-11 5.26426e-25 0
3657 1 0.000635 0.00342656 0.000635 -0.015444 2.06574e-17 -3.38813e-21 2.16e-11 0 1.29287e-36
3743 1 0.000635 0.00452641 0 -0.015444 4.13132e-17 5.92923e-21 2.16e-11 0 1.29287e-35
3830 1 0.000635 0.00562626 0.000635 -0.015444 -1.44595e-16 -3.38813e-21 2.16e-11 0 3.23218e-35
3915 1 0.000635 0.00672611 0 -0.015444 8.26315e-17 5.92923e-21 2.16e-11 0 2.06859e-35
4001 1 0.000635 0.00782597 0.000635 -0.015444 0 -3.38813e-21 2.16e-11 0 0
4086 1 0.000635 0.00892582 0 -0.015444 -6.77626e-21 6.77626e-21 2.16e-11 0 0
4172 1 0.000635 0.0100257 0.000635 -0.015444 1.44599e-16 -3.38813e-21 2.16e-11 0 6.33506e-35
4257 1 0.000635 0.0111255 0 -0.015444 1.43303e-07 3.10099e-17 -4.71828e-06 2.13534e-10 6.33506e-35
4342 1 0.000635 0.0122254 0.000635 -0.015444 2.62835e-06 -2.32677e-06 7.86286e-06 2.63118e-10 8.20631e-14
2369 1 0.000635 -0.0130162 0.00126937 -0.0150997 -4.32525e-08 1.32601e-09 -1.33572e-07 4.20331e-10 1.97816e-11
2454 1 0.000635 -0.0119714 0.001905 -0.015444 4.08577e-06 -3.0796e-05 8.49096e-06 4.2024e-10 8.63282e-12
2538 1 0.000635 -0.0108715 0.00127 -0.015444 -2.36598e-07 1.18691e-08 -6.06367e-06 3.56231e-10 6.33506e-35
2624 1 0.000635 -0.00977167 0.001905 -0.015444 -1.44595e-16 1.19221e-17 2.16e-11 0 6.39971e-35
2709 1 0.000635 -0.00867182 0.00127 -0.015444 -8.26264e-17 0 2.16e-11 0 2.06859e-35
2795 1 0.000635 -0.00757197 0.001905 -0.015444 1.44604e-16 1.19221e-17 2.16e-11 0 3.29682e-35
2880 1 0.000635 -0.00647211 0.00127 -0.015444 -1.44605e-16 0 2.16e-11 0 3.23218e-35
2966 1 0.000635 -0.00537226 0.001905 -0.015444 1.44604e-16 1.19238e-17 2.16e-11 0 3.29682e-35
3052 1 0.000635 -0.00427241 0.00127 -0.015444 -1.0328e-16 0 2.16e-11 0 1.68073e-35
3139 1 0.000635 -0.00317256 0.001905 -0.015444 4.13115e-17 1.19229e-17 2.16e-11 0 5.81792e-36
3225 1 0.000635 -0.0020727 0.00127 -0.015444 0 0 2.16e-11 0 0
3312 1 0.000635 -0.000972852 0.001905 -0.015444 0 1.19212e-17 2.16e-11 0 6.46435e-37
3398 1 0.000635 0.000127 0.00127 -0.015444 0 0 2.16e-11 0 0
3485 1 0.000635 0.00122685 0.001905 -0.015444 0 1.19212e-17 2.16e-11 0 6.46435e-37
3571 1 0.000635 0.0023267 0.00127 -0.015444 -6.77626e-21 0 2.16e-11 0 0
3658 1 0.000635 0.00342656 0.001905 -0.015444 2.06591e-17 1.19221e-17 2.16e-11 0 1.93931e-36
3744 1 0.000635 0.00452641 0.00127 -0.015444 4.13115e-17 0 2.16e-11 0 1.29287e-35
3831 1 0.000635 0.00562626 0.001905 -0.015444 -1.44597e-16 1.19221e-17 2.16e-11 0 3.29682e-35
3916 1 0.000635 0.00672611 0.00127 -0.015444 8.26331e-17 0 2.16e-11 0 2.06859e-35
4002 1 0.000635 0.00782597 0.001905 -0.015444 -3.38813e-21 1.19221e-17 2.16e-11 0 6.46435e-37
4087 1 0.000635 0.00892582 0.00127 -0.015444 -6.77626e-21 0 2.16e-11 0 0
4173 1 0.000635 0.0100257 0.001905 -0.015444 1.44599e-16 1.19212e-17 2.16e-11 0 6.39971e-35
4258 1 0.000635 0.0111255 0.00127 -0.015444 1.42103e-07 2.56694e-09 -4.71707e-06 2.13417e-10 6.33506e-35
4343 1 0.000635 0.0122254 0.001905 -0.015444 1.00801e-05 -5.83718e-06 1.01545e-05 2.52571e-10 6.82432e-13
4427 1 0.000635 0.0132923 0.00126977 -0.0151765 -3.48189e-08 -1.62153e-10 1.27719e-07 2.74971e-10 4.00923e-12
2370 1 0.000635 -0.0130167 0.00253859 -0.0151016 -5.44298e-08 4.77303e-09 -1.63883e-07 4.33628e-10 4.51985e-11
2455 1 0.000635 -0.0119714 0.003175 -0.015444 3.16142e-05 -6.37092e-05 -1.46028e-06 4.39017e-10 4.00381e-11
2539 1 0.000635 -0.0108715 0.00254 -0.015444 -2.36877e-07 1.81415e-08 -6.08429e-06 3.58695e-10 6.33506e-35
2625 1 0.000635 -0.00977167 0.003175 -0.015444 -1.3427e-16 -4.1748e-17 2.16e-11 5.26426e-25 5.81792e-35
2710 1 0.000635 -0.00867182 0.00254 -0.015444 -7.2301e-17 5.97417e-18 2.16e-11 0 1.61609e-35
2796 1 0.000635 -0.00757197 0.003175 -0.015444 1.44602e-16 -4.77053e-17 2.16e-11 5.26426e-25 3.55539e-35
2881 1 0.000635 -0.00647211 0.00254 -0.015444 -1.44605e-16 1.19365e-17 2.16e-11 0 3.23218e-35
2967 1 0.000635 -0.00537226 0.003175 -0.015444 1.44604e-16 -4.7707e-17 2.16e-11 0 3.55539e-35
3053 1 0.000635 -0.00427241 0.00254 -0.015444 -1.03284e-16 1.19373e-17 2.16e-11 5.26426e-25 1.93931e-35
3140 1 0.000635 -0.00317256 0.003175 -0.015444 3.09963e-17 -4.17472e-17 2.16e-11 1.05285e-24 6.46435e-36
3226 1 0.000635 -0.0020727 0.00254 -0.015444 0 1.43996e-20 2.16e-11 0 0
3313 1 0.000635 -0.000972852 0.003175 -0.015444 0 -3.57823e-17 2.16e-11 1.05285e-24 3.23218e-36
3399 1 0.000635 0.000127 0.00254 -0.015444 0 1.35525e-20 2.16e-11 0 0
3486 1 0.000635 0.00122685 0.003175 -0.015444 0 -3.57823e-17 2.16e-11 1.05285e-24 3.23218e-36
3572 1 0.000635 0.0023267 0.00254 -0.015444 -6.77626e-21 1.35525e-20 2.16e-11 0 0
3659 1 0.000635 0.00342656 0.003175 -0.015444 3.09777e-17 -4.17463e-17 2.16e-11 1.05285e-24 6.46435e-36
3745 1 0.000635 0.00452641 0.00254 -0.015444 4.13115e-17 1.19382e-17 2.16e-11 5.26426e-25 1.93931e-35
3832 1 0.000635 0.00562626 0.003175 -0.015444 -1.44595e-16 -4.77053e-17 2.16e-11 5.26426e-25 3.55539e-35
3917 1 0.000635 0.00672611 0.00254 -0.015444 7.23095e-17 5.97502e-18 2.16e-11 0 1.61609e-35
4003 1 0.000635 0.00782597 0.003175 -0.015444 0 -3.57823e-17 2.16e-11 1.05285e-24 3.23218e-36
4088 1 0.000635 0.00892582 0.00254 -0.015444 -8.47033e-21 1.27055e-20 2.16e-11 0 0
4174 1 0.000635 0.0100257 0.003175 -0.015444 1.3427e-16 -4.1748e-17 2.16e-11 5.26426e-25 5.81792e-35
4259 1 0.000635 0.0111255 0.00254 -0.015444 1.28617e-07 3.14922e-08 -4.5701e-06 2.00315e-10 6.33506e-35
4344 1 0.000635 0.0122254 0.003175 -0.015444 4.86149e-05 -6.09757e-06 1.82783e-05 2.58456e-10 8.06022e-12
4428 1 0.000635 0.0132922 0.00253937 -0.0151751 6.88137e-09 1.62052e-09 -2.95638e-08 2.84757e-10 1.76354e-11
2371 1 0.000635 -0.0130154 0.00380737 -0.0150987 1.79977e-07 9.70189e-09 3.94763e-07 4.55115e-10 1.51089e-10