ITEM: TIMESTEP
1210000
ITEM: NUMBER OF ATOMS
6793
ITEM: BOX BOUNDS ff ff ff
-8.9999999999999997e-02 8.9999999999999997e-02
-8.9999999999999997e-02 8.9999999999999997e-02
-4.0000000000000001e-02 4.0000000000000001e-02
ITEM: ATOMS id type radius x y z fx fy fz c_bendingE c_stretchingE
3385 1 0.000635 0.000120775 -0.0152019 -0.0126508 3.05337e-11 -3.22375e-11 -1.97719e-10 2.01372e-09 7.82034e-11
3213 1 0.000635 -0.00207071 -0.013952 -0.0128627 1.47633e-11 7.02213e-12 -2.01417e-11 3.24664e-09 3.62511e-10
3299 1 0.000635 -0.000974361 -0.0145877 -0.0128309 1.41494e-11 1.17155e-11 -2.35196e-11 3.0693e-09 1.22605e-10
3386 1 0.000635 0.000126006 -0.0139647 -0.0129432 8.4573e-12 -2.17171e-11 -2.09761e-10 2.29937e-09 3.94467e-11
3472 1 0.000635 0.00121534 -0.0145609 -0.0126767 -2.32001e-11 8.67165e-11 1.30273e-10 1.04205e-09 1.4318e-10
3559 1 0.000635 0.00230371 -0.013908 -0.0126679 -1.48008e-11 4.01468e-11 5.19825e-11 3.97356e-10 2.46734e-10
3041 1 0.000635 -0.00426444 -0.0126822 -0.0128635 -2.12824e-11 2.31195e-11 2.90831e-11 1.96245e-09 1.36113e-10
3127 1 0.000635 -0.00316651 -0.0133161 -0.0128633 -6.13152e-11 -3.47923e-11 -2.6512e-10 2.37031e-09 3.62225e-10
3214 1 0.000635 -0.0020727 -0.0127 -0.013068 -9.82179e-05 1.45683e-05 -8.99436e-07 2.76681e-09 7.5997e-11
3300 1 0.000635 -0.000973291 -0.013335 -0.013039 5.34687e-12 4.53716e-12 -1.86376e-11 2.08945e-09 3.4259e-11
3387 1 0.000635 0.000127 -0.0127 -0.013068 -4.12167e-05 -6.40863e-05 3.68046e-06 2.27936e-10 1.78455e-11
3473 1 0.000635 0.00122591 -0.0133337 -0.0130097 1.99576e-11 -4.04549e-11 -3.58013e-10 2.71569e-10 1.15168e-10
3560 1 0.000635 0.0023267 -0.0127 -0.013068 6.69641e-05 -0.000258908 0.000101529 3.82425e-10 2.56753e-10
3646 1 0.000635 0.00341051 -0.0132986 -0.0127721 -4.28922e-11 1.53153e-10 4.59528e-10 3.57918e-10 2.44821e-10
3733 1 0.000635 0.00451647 -0.0126793 -0.0128432 2.64938e-11 -3.89605e-11 -1.66285e-10 2.43701e-10 3.88805e-11
2870 1 0.000635 -0.00646252 -0.011415 -0.0128724 -9.38882e-12 -1.92525e-12 -4.82411e-11 1.54336e-09 5.08192e-11
2955 1 0.000635 -0.00536318 -0.0120485 -0.0128666 1.33329e-11 2.30889e-11 8.90393e-11 1.70585e-09 5.95324e-11
3042 1 0.000635 -0.00427241 -0.01143 -0.013068 -1.12535e-06 6.38374e-05 -1.46747e-05 1.48617e-09 1.98945e-11
3128 1 0.000635 -0.00317256 -0.012065 -0.013068 -4.05855e-05 9.74702e-05 -1.79993e-05 1.89141e-09 7.74208e-11
3215 1 0.000635 -0.0020727 -0.01143 -0.013068 3.28537e-08 -8.73799e-08 -3.61533e-06 1.2452e-10 5.17148e-36
3301 1 0.000635 -0.000972852 -0.012065 -0.013068 4.68023e-08 -1.97354e-05 -2.9379e-06 1.15863e-10 1.74701e-12
3388 1 0.000635 0.000127 -0.01143 -0.013068 8.75876e-09 0 -1.10013e-06 2.29292e-11 5.17148e-36
3474 1 0.000635 0.00122685 -0.012065 -0.013068 -3.42856e-08 -7.86596e-07 -4.23861e-06 2.50324e-10 1.22304e-15
3561 1 0.000635 0.0023267 -0.01143 -0.013068 1.45437e-07 -9.86008e-08 -5.50163e-06 3.16152e-10 5.17148e-36
3647 1 0.000635 0.00342656 -0.012065 -0.013068 5.54004e-05 3.71299e-05 1.08699e-06 2.87517e-10 4.05306e-11
3734 1 0.000635 0.00452641 -0.01143 -0.013068 2.51646e-05 1.60959e-05 3.3836e-06 1.98446e-10 8.11931e-12
3820 1 0.000635 0.00561932 -0.0120513 -0.0128843 -3.24121e-12 4.7454e-11 2.24044e-10 1.82911e-10 8.65115e-12
3906 1 0.000635 0.00672114 -0.0114207 -0.0129151 -6.70194e-11 1.91617e-10 1.11556e-09 1.5223e-10 1.9136e-12
3991 1 0.000635 0.00780981 -0.0120343 -0.0126884 5.26011e-11 -9.62763e-11 -3.01515e-10 1.63374e-09 8.22422e-11
4077 1 0.000635 0.00891093 -0.0114012 -0.0127154 -2.38531e-11 4.99629e-11 2.1921e-10 1.54078e-09 1.18167e-11
2785 1 0.000635 -0.00756215 -0.0107815 -0.0128793 -1.14357e-11 1.12927e-11 8.96253e-13 1.4402e-09 7.39829e-11
2956 1 0.000635 -0.00537226 -0.010795 -0.013068 2.83568e-05 3.83683e-05 -1.22267e-05 1.24798e-09 7.93044e-12
3129 1 0.000635 -0.00317256 -0.010795 -0.013068 -1.02338e-08 -7.47502e-08 -3.58531e-06 1.22456e-10 6.46435e-36
3302 1 0.000635 -0.000972852 -0.010795 -0.013068 3.86938e-09 0 -2.56083e-07 1.23993e-12 5.17148e-36
3475 1 0.000635 0.00122685 -0.010795 -0.013068 8.29223e-09 0 -5.14162e-07 5.00019e-12 5.17148e-36
3648 1 0.000635 0.00342656 -0.010795 -0.013068 1.04745e-07 -6.39442e-08 -4.2321e-06 1.81103e-10 1.0343e-35
3821 1 0.000635 0.00562626 -0.010795 -0.013068 1.38723e-05 8.34397e-06 3.3187e-06 1.37099e-10 2.38257e-12
3992 1 0.000635 0.00782289 -0.0107896 -0.0129469 -2.11417e-12 4.05013e-12 7.65019e-11 8.04053e-10 5.08992e-11
2615 1 0.000635 -0.00976052 -0.00951284 -0.0128815 -2.83389e-11 -3.99284e-11 -3.21163e-10 1.51798e-09 1.71567e-10
2700 1 0.000635 -0.00866168 -0.0101477 -0.0128841 7.26927e-12 1.26893e-11 4.9321e-12 1.40589e-09 1.1075e-10
2786 1 0.000635 -0.00757197 -0.009525 -0.013068 7.15001e-05 4.32325e-06 -9.00712e-06 9.14762e-10 3.78973e-11
2871 1 0.000635 -0.00647211 -0.01016 -0.013068 5.17968e-05 1.92836e-05 -1.03894e-05 1.07468e-09 1.7515e-11
2957 1 0.000635 -0.00537226 -0.009525 -0.013068 -5.02697e-08 -5.16278e-08 -3.44253e-06 1.12961e-10 3.74932e-35
3043 1 0.000635 -0.00427241 -0.01016 -0.013068 -3.41486e-08 -6.27177e-08 -3.53133e-06 1.18829e-10 2.71503e-35
3130 1 0.000635 -0.00317256 -0.009525 -0.013068 2.0671e-17 0 2.16e-11 1.05285e-24 6.46435e-36
3216 1 0.000635 -0.0020727 -0.01016 -0.013068 -6.77626e-21 0 2.16e-11 0 5.17148e-36
3303 1 0.000635 -0.000972852 -0.009525 -0.013068 0 0 2.16e-11 0 5.17148e-36
3389 1 0.000635 0.000127 -0.01016 -0.013068 0 0 2.16e-11 0 5.17148e-36
3476 1 0.000635 0.00122685 -0.009525 -0.013068 0 0 2.16e-11 0 5.17148e-36
3562 1 0.000635 0.0023267 -0.01016 -0.013068 0 0 2.16e-11 0 5.17148e-36
3649 1 0.000635 0.00342656 -0.009525 -0.013068 4.13115e-17 0 2.16e-11 0 1.0343e-35
3735 1 0.000635 0.00452641 -0.01016 -0.013068 6.31808e-08 -4.25275e-08 -3.3316e-06 1.09605e-10 3.10289e-35
3822 1 0.000635 0.00562626 -0.009525 -0.013068 4.73606e-08 -2.40868e-08 -2.68866e-06 7.15938e-11 3.74932e-35
3907 1 0.000635 0.00672611 -0.01016 -0.013068 2.00193e-05 -8.58283e-06 4.35044e-06 1.09529e-10 2.48341e-12
3993 1 0.000635 0.00782597 -0.009525 -0.013068 1.22073e-05 -2.76401e-05 2.61541e-06 3.1165e-10 2.8133e-12
4078 1 0.000635 0.00892366 -0.010154 -0.0129542 2.00239e-11 -1.20589e-11 -8.42419e-11 1.56424e-09 7.79344e-11
4164 1 0.000635 0.0100097 -0.00950401 -0.0128295 2.94046e-11 -7.08167e-12 -1.10067e-10 1.41455e-09 1.24793e-10
2446 1 0.000635 -0.0119607 -0.0082485 -0.0128481 1.55076e-11 1.094e-10 1.80196e-10 2.40846e-09 1.93696e-11
2530 1 0.000635 -0.0108597 -0.00887994 -0.012871 -1.07418e-10 -1.05072e-10 -6.9893e-10 2.00226e-09 6.13628e-11
2616 1 0.000635 -0.00977167 -0.008255 -0.013068 -2.1656e-05 -8.25841e-05 1.56104e-05 5.46771e-10 3.90443e-11
2701 1 0.000635 -0.00867182 -0.00889 -0.013068 9.0816e-05 -8.21899e-06 -8.51418e-06 7.39086e-10 6.75327e-11
2787 1 0.000635 -0.00757197 -0.008255 -0.013068 -6.46541e-08 -3.7949e-08 -3.31077e-06 1.04326e-10 4.0079e-35
2872 1 0.000635 -0.00647211 -0.00889 -0.013068 -5.98591e-08 -4.28395e-08 -3.34843e-06 1.06823e-10 3.74932e-35
2958 1 0.000635 -0.00537226 -0.008255 -0.013068 1.44607e-16 -7.15799e-17 2.16e-11 5.26426e-25 4.0079e-35
3044 1 0.000635 -0.00427241 -0.00889 -0.013068 -1.03289e-16 -4.76841e-17 2.16e-11 1.05285e-24 2.71503e-35
3131 1 0.000635 -0.00317256 -0.008255 -0.013068 3.09912e-17 -7.75431e-17 2.16e-11 5.26426e-25 1.87466e-35
3217 1 0.000635 -0.0020727 -0.00889 -0.013068 -3.38813e-21 -4.76866e-17 2.16e-11 0 5.17148e-36
3304 1 0.000635 -0.000972852 -0.008255 -0.013068 0 -7.15833e-17 2.16e-11 0 1.0343e-35
3390 1 0.000635 0.000127 -0.00889 -0.013068 0 -4.76866e-17 2.16e-11 0 5.17148e-36
3477 1 0.000635 0.00122685 -0.008255 -0.013068 0 -7.15833e-17 2.16e-11 0 1.0343e-35
3563 1 0.000635 0.0023267 -0.00889 -0.013068 0 -4.76858e-17 2.16e-11 0 5.17148e-36
3650 1 0.000635 0.00342656 -0.008255 -0.013068 4.13098e-17 -7.15825e-17 2.16e-11 0 1.0343e-35
3736 1 0.000635 0.00452641 -0.00889 -0.013068 4.13115e-17 -4.76841e-17 2.16e-11 0 3.10289e-35
3823 1 0.000635 0.00562626 -0.008255 -0.013068 -1.446e-16 -7.15791e-17 2.16e-11 0 4.0079e-35
3908 1 0.000635 0.00672611 -0.00889 -0.013068 2.57926e-08 -3.12596e-08 -2.35156e-06 5.36032e-11 1.68073e-35
3994 1 0.000635 0.00782597 -0.008255 -0.013068 -1.79336e-08 -7.79799e-08 -3.17386e-06 1.0634e-10 1.0343e-35
4079 1 0.000635 0.00892582 -0.00889 -0.013068 -7.74119e-05 9.10665e-05 -2.31058e-05 7.92881e-10 4.82413e-11
4165 1 0.000635 0.0100257 -0.008255 -0.013068 0.000276664 5.37941e-05 6.85119e-05 1.12122e-09 4.61394e-10
2362 1 0.000635 -0.0130593 -0.0076136 -0.0127883 -7.65777e-12 3.77828e-11 1.60624e-12 2.18838e-09 8.17316e-11
2447 1 0.000635 -0.0119687 -0.00698428 -0.0129666 -9.24534e-11 1.01066e-11 -7.74966e-10 3.16628e-10 6.84137e-11
2531 1 0.000635 -0.0108711 -0.0076198 -0.0130276 1.64914e-13 9.87898e-12 -1.95232e-12 3.87384e-10 1.22835e-11
2617 1 0.000635 -0.00977167 -0.006985 -0.013068 -7.8218e-06 -4.464e-06 -2.27184e-06 8.54745e-11 3.59909e-13
2702 1 0.000635 -0.00867182 -0.00762 -0.013068 -7.69581e-08 -2.13763e-08 -3.35745e-06 1.07415e-10 2.9736e-35
2788 1 0.000635 -0.00757197 -0.006985 -0.013068 1.44605e-16 -2.38958e-17 2.16e-11 0 4.0079e-35
2873 1 0.000635 -0.00647211 -0.00762 -0.013068 -1.44609e-16 2.38967e-17 2.16e-11 0 4.0079e-35
2959 1 0.000635 -0.00537226 -0.006985 -0.013068 1.44605e-16 -2.38958e-17 2.16e-11 0 4.0079e-35
3045 1 0.000635 -0.00427241 -0.00762 -0.013068 -1.13623e-16 2.98573e-17 2.16e-11 0 2.90896e-35
3132 1 0.000635 -0.00317256 -0.006985 -0.013068 3.09912e-17 -2.98573e-17 2.16e-11 0 1.87466e-35
3218 1 0.000635 -0.0020727 -0.00762 -0.013068 -1.69407e-21 2.38958e-17 2.16e-11 0 1.0343e-35
3305 1 0.000635 -0.000972852 -0.006985 -0.013068 0 -2.38967e-17 2.16e-11 0 1.0343e-35
3391 1 0.000635 0.000127 -0.00762 -0.013068 0 2.38967e-17 2.16e-11 0 1.0343e-35
3478 1 0.000635 0.00122685 -0.006985 -0.013068 0 -2.38967e-17 2.16e-11 0 1.0343e-35
3564 1 0.000635 0.0023267 -0.00762 -0.013068 0 2.38967e-17 2.16e-11 0 1.0343e-35
3651 1 0.000635 0.00342656 -0.006985 -0.013068 4.13081e-17 -2.38967e-17 2.16e-11 0 1.0343e-35
3737 1 0.000635 0.00452641 -0.00762 -0.013068 4.13217e-17 2.38958e-17 2.16e-11 0 2.06859e-35
3824 1 0.000635 0.00562626 -0.006985 -0.013068 -1.44599e-16 -2.3895e-17 2.16e-11 0 4.0079e-35
3909 1 0.000635 0.00672611 -0.00762 -0.013068 6.19757e-17 2.38958e-17 2.16e-11 0 2.9736e-35
3995 1 0.000635 0.00782597 -0.006985 -0.013068 -6.77626e-21 -2.38967e-17 2.16e-11 0 1.0343e-35
4080 1 0.000635 0.00892582 -0.00762 -0.013068 -6.78032e-08 -1.50444e-07 -5.81299e-06 4.79009e-10 1.0343e-35
4166 1 0.000635 0.0100257 -0.006985 -0.013068 -8.31619e-05 4.75929e-05 -1.68134e-05 8.64758e-10 4.28235e-11
4251 1 0.000635 0.0111188 -0.00761269 -0.0129286 -2.85917e-11 3.15101e-11 2.63214e-10 1.37495e-09 7.09985e-10
4336 1 0.000635 0.0121726 -0.00694387 -0.0126727 5.39164e-11 -1.84743e-11 -1.08216e-10 1.65119e-09 5.60047e-10
2363 1 0.000635 -0.0130516 -0.00634446 -0.0127939 -5.14937e-11 2.20765e-11 -3.41556e-10 3.72455e-10 9.09955e-11
2448 1 0.000635 -0.0119706 -0.0057155 -0.0130233 -5.74397e-11 2.05595e-11 -3.74339e-10 2.28371e-10 8.5167e-11
2532 1 0.000635 -0.0108715 -0.00635 -0.013068 -5.8474e-05 -6.74486e-05 6.37511e-06 1.10373e-10 3.00308e-11
2618 1 0.000635 -0.00977167 -0.005715 -0.013068 -3.07213e-09 5.32108e-09 -8.93278e-07 1.51048e-11 6.85221e-35
2703 1 0.000635 -0.00867182 -0.00635 -0.013068 -1.89794e-10 3.28732e-10 -3.55957e-07 2.39533e-12 2.9736e-35
2789 1 0.000635 -0.00757197 -0.005715 -0.013068 1.44602e-16 4.76832e-17 2.16e-11 0 3.74932e-35
2874 1 0.000635 -0.00647211 -0.00635 -0.013068 -1.44609e-16 7.15816e-17 2.16e-11 0 4.0079e-35
2960 1 0.000635 -0.00537226 -0.005715 -0.013068 1.44604e-16 4.76841e-17 2.16e-11 5.26426e-25 3.74932e-35
3046 1 0.000635 -0.00427241 -0.00635 -0.013068 -1.13621e-16 7.75431e-17 2.16e-11 0 2.90896e-35
3133 1 0.000635 -0.00317256 -0.005715 -0.013068 2.0671e-17 4.76858e-17 2.16e-11 5.26426e-25 6.46435e-36
3219 1 0.000635 -0.0020727 -0.00635 -0.013068 -5.0822e-21 7.15842e-17 2.16e-11 0 1.0343e-35
3306 1 0.000635 -0.000972852 -0.005715 -0.013068 0 4.76866e-17 2.16e-11 0 5.17148e-36
3392 1 0.000635 0.000127 -0.00635 -0.013068 0 7.1585e-17 2.16e-11 0 1.0343e-35
3479 1 0.000635 0.00122685 -0.005715 -0.013068 0 4.76866e-17 2.16e-11 0 5.17148e-36
3565 1 0.000635 0.0023267 -0.00635 -0.013068 0 7.15842e-17 2.16e-11 0 1.0343e-35
3652 1 0.000635 0.00342656 -0.005715 -0.013068 4.13098e-17 4.76858e-17 2.16e-11 0 1.0343e-35
3738 1 0.000635 0.00452641 -0.00635 -0.013068 4.13183e-17 7.15816e-17 2.16e-11 0 2.06859e-35
3825 1 0.000635 0.00562626 -0.005715 -0.013068 -1.44597e-16 4.76841e-17 2.16e-11 0 3.74932e-35
3910 1 0.000635 0.00672611 -0.00635 -0.013068 6.19774e-17 7.15825e-17 2.16e-11 0 2.9736e-35
3996 1 0.000635 0.00782597 -0.005715 -0.013068 -6.77626e-21 4.76849e-17 2.16e-11 0 5.17148e-36
4081 1 0.000635 0.00892582 -0.00635 -0.013068 -1.31758e-08 -2.28211e-08 -1.23099e-06 2.87374e-11 1.0343e-35
4167 1 0.000635 0.0100257 -0.005715 -0.013068 -4.07853e-08 -7.06423e-08 -3.49476e-06 2.36847e-10 6.85221e-35
4252 1 0.000635 0.0111255 -0.00635 -0.013068 -0.000271512 -2.34064e-05 -5.53341e-05 1.24614e-09 2.38688e-10
4337 1 0.000635 0.0122217 -0.00571698 -0.0130111 3.80353e-12 -5.80741e-12 -8.08625e-11 1.78907e-09 5.681e-10
2364 1 0.000635 -0.0130379 -0.00507546 -0.0127775 -2.59635e-10 2.95506e-11 -8.92054e-10 2.95067e-10 2.06887e-10
2533 1 0.000635 -0.0108715 -0.00508 -0.013068 -1.55365e-05 -9.09719e-06 -3.41466e-06 2.12226e-10 1.43529e-12
2704 1 0.000635 -0.00867182 -0.00508 -0.013068 -6.19774e-17 -2.3845e-17 2.16e-11 0 1.42216e-35
2875 1 0.000635 -0.00647211 -0.00508 -0.013068 -1.44605e-16 -2.38442e-17 2.16e-11 0 3.49075e-35
3047 1 0.000635 -0.00427241 -0.00508 -0.013068 -1.03287e-16 -2.38433e-17 2.16e-11 1.57928e-24 2.45645e-35
3220 1 0.000635 -0.0020727 -0.00508 -0.013068 -3.38813e-21 -2.38442e-17 2.16e-11 0 2.58574e-36
3393 1 0.000635 0.000127 -0.00508 -0.013068 0 -2.38442e-17 2.16e-11 0 2.58574e-36
3566 1 0.000635 0.0023267 -0.00508 -0.013068 -3.38813e-21 -2.38459e-17 2.16e-11 0 2.58574e-36
3739 1 0.000635 0.00452641 -0.00508 -0.013068 4.13081e-17 -2.38433e-17 2.16e-11 5.26426e-25 2.84431e-35
3911 1 0.000635 0.00672611 -0.00508 -0.013068 6.19859e-17 -2.38442e-17 2.16e-11 0 1.42216e-35
4082 1 0.000635 0.00892582 -0.00508 -0.013068 -8.47033e-21 -2.3845e-17 2.16e-11 0 2.58574e-36
4253 1 0.000635 0.0111255 -0.00508 -0.013068 -4.23695e-05 2.4202e-05 -1.03263e-05 8.44405e-10 1.10155e-11
4422 1 0.000635 0.0133023 -0.00507819 -0.0128353 3.47174e-11 -2.7397e-11 -2.19304e-10 2.30567e-09 1.54092e-10
2365 1 0.000635 -0.0130227 -0.00380789 -0.0127454 1.26732e-10 5.09202e-12 2.85784e-10 3.71668e-10 9.44141e-11
2449 1 0.000635 -0.0119714 -0.004445 -0.013068 -0.000158728 -0.000114225 5.67058e-05 3.28943e-10 1.23719e-10
2534 1 0.000635 -0.0108715 -0.00381 -0.013068 -1.62639e-07 -8.77259e-08 -5.34519e-06 2.75606e-10 4.65433e-35
2619 1 0.000635 -0.00977167 -0.004445 -0.013068 -3.70394e-09 6.41542e-09 -3.9432e-07 2.94064e-12 6.01185e-35
2705 1 0.000635 -0.00867182 -0.00381 -0.013068 -8.2623e-17 0 2.16e-11 1.05285e-24 2.06859e-35
2790 1 0.000635 -0.00757197 -0.004445 -0.013068 1.44602e-16 -5.96282e-17 2.16e-11 5.26426e-25 3.74932e-35
2876 1 0.000635 -0.00647211 -0.00381 -0.013068 -1.44605e-16 0 2.16e-11 0 3.23218e-35
2961 1 0.000635 -0.00537226 -0.004445 -0.013068 1.44604e-16 -5.9629e-17 2.16e-11 5.26426e-25 3.74932e-35
3048 1 0.000635 -0.00427241 -0.00381 -0.013068 -1.03291e-16 0 2.16e-11 0 1.68073e-35
3134 1 0.000635 -0.00317256 -0.004445 -0.013068 3.09963e-17 -5.36693e-17 2.16e-11 1.57928e-24 8.40366e-36
3221 1 0.000635 -0.0020727 -0.00381 -0.013068 -6.77626e-21 0 2.16e-11 2.10571e-24 0
3307 1 0.000635 -0.000972852 -0.004445 -0.013068 0 -4.77053e-17 2.16e-11 1.05285e-24 5.17148e-36
3394 1 0.000635 0.000127 -0.00381 -0.013068 0 0 2.16e-11 1.05285e-24 0
3480 1 0.000635 0.00122685 -0.004445 -0.013068 0 -4.77053e-17 2.16e-11 1.05285e-24 5.17148e-36
3567 1 0.000635 0.0023267 -0.00381 -0.013068 0 0 2.16e-11 2.10571e-24 0
3653 1 0.000635 0.00342656 -0.004445 -0.013068 3.09811e-17 -5.36701e-17 2.16e-11 1.05285e-24 8.40366e-36
3740 1 0.000635 0.00452641 -0.00381 -0.013068 4.13217e-17 7.70372e-34 2.16e-11 0 1.29287e-35
3826 1 0.000635 0.00562626 -0.004445 -0.013068 -1.44597e-16 -5.9629e-17 2.16e-11 5.26426e-25 3.74932e-35
3912 1 0.000635 0.00672611 -0.00381 -0.013068 8.26298e-17 0 2.16e-11 1.05285e-24 2.06859e-35
3997 1 0.000635 0.00782597 -0.004445 -0.013068 -3.38813e-21 -4.77061e-17 2.16e-11 1.05285e-24 5.17148e-36
4083 1 0.000635 0.00892582 -0.00381 -0.013068 -6.77626e-21 0 2.16e-11 1.05285e-24 0
4168 1 0.000635 0.0100257 -0.004445 -0.013068 1.56174e-08 2.70501e-08 -5.01728e-07 4.77838e-12 6.01185e-35
4254 1 0.000635 0.0111255 -0.00381 -0.013068 1.00148e-07 -2.22257e-08 -4.11026e-06 1.61392e-10 4.65433e-35
4338 1 0.000635 0.0122254 -0.004445 -0.013068 0.000117777 -0.000151973 2.8973e-05 1.9199e-09 1.96181e-10
4423 1 0.000635 0.0133055 -0.00380868 -0.0128542 2.46246e-11 -1.47577e-11 -1.61637e-10 1.35946e-09 1.09165e-10
2366 1 0.000635 -0.0130249 -0.00253883 -0.0127517 -2.60523e-11 -2.62383e-13 -7.75485e-11 3.64894e-10 2.93716e-11
2450 1 0.000635 -0.0119714 -0.003175 -0.013068 2.41282e-05 5.12624e-05 1.22782e-06 3.58095e-10 2.56741e-11
2535 1 0.000635 -0.0108715 -0.00254 -0.013068 -2.02965e-07 -8.4737e-09 -5.63701e-06 3.06803e-10 6.33506e-35
2620 1 0.000635 -0.00977167 -0.003175 -0.013068 -1.3427e-16 4.1748e-17 2.16e-11 5.26426e-25 5.81792e-35
2706 1 0.000635 -0.00867182 -0.00254 -0.013068 -7.2301e-17 -5.97417e-18 2.16e-11 0 1.61609e-35
2791 1 0.000635 -0.00757197 -0.003175 -0.013068 1.44602e-16 4.77053e-17 2.16e-11 5.26426e-25 3.55539e-35
2877 1 0.000635 -0.00647211 -0.00254 -0.013068 -1.44605e-16 -1.19365e-17 2.16e-11 0 3.23218e-35
2962 1 0.000635 -0.00537226 -0.003175 -0.013068 1.44604e-16 4.7707e-17 2.16e-11 0 3.55539e-35
3049 1 0.000635 -0.00427241 -0.00254 -0.013068 -1.03284e-16 -1.19373e-17 2.16e-11 5.26426e-25 1.93931e-35
3135 1 0.000635 -0.00317256 -0.003175 -0.013068 3.09963e-17 4.17472e-17 2.16e-11 1.05285e-24 6.46435e-36
3222 1 0.000635 -0.0020727 -0.00254 -0.013068 0 -1.43996e-20 2.16e-11 0 0
3308 1 0.000635 -0.000972852 -0.003175 -0.013068 0 3.57823e-17 2.16e-11 1.05285e-24 3.23218e-36
3395 1 0.000635 0.000127 -0.00254 -0.013068 0 -1.35525e-20 2.16e-11 0 0
3481 1 0.000635 0.00122685 -0.003175 -0.013068 0 3.57823e-17 2.16e-11 1.05285e-24 3.23218e-36
3568 1 0.000635 0.0023267 -0.00254 -0.013068 -6.77626e-21 -1.35525e-20 2.16e-11 0 0
3654 1 0.000635 0.00342656 -0.003175 -0.013068 3.09777e-17 4.17463e-17 2.16e-11 1.05285e-24 6.46435e-36
3741 1 0.000635 0.00452641 -0.00254 -0.013068 4.13115e-17 -1.19382e-17 2.16e-11 5.26426e-25 1.93931e-35
3827 1 0.000635 0.00562626 -0.003175 -0.013068 -1.44595e-16 4.77053e-17 2.16e-11 5.26426e-25 3.55539e-35
3913 1 0.000635 0.00672611 -0.00254 -0.013068 7.23095e-17 -5.97502e-18 2.16e-11 0 1.61609e-35
3998 1 0.000635 0.00782597 -0.003175 -0.013068 0 3.57823e-17 2.16e-11 1.05285e-24 3.23218e-36
4084 1 0.000635 0.00892582 -0.00254 -0.013068 -8.47033e-21 -1.27055e-20 2.16e-11 0 0
4169 1 0.000635 0.0100257 -0.003175 -0.013068 1.3427e-16 4.1748e-17 2.16e-11 5.26426e-25 5.81792e-35
4255 1 0.000635 0.0111255 -0.00254 -0.013068 9.47696e-08 -3.12655e-08 -3.95562e-06 1.49714e-10 6.33506e-35
4339 1 0.000635 0.0122254 -0.003175 -0.013068 5.12437e-05 5.57298e-06 1.60419e-05 1.97105e-10 8.67663e-12
4424 1 0.000635 0.0133006 -0.00253944 -0.0128344 -1.48912e-10 -1.67985e-11 5.09192e-10 2.18846e-10 1.63532e-11
2367 1 0.000635 -0.013025 -0.00126946 -0.0127516 2.10829e-11 -1.78015e-12 3.36645e-11 3.51722e-10 1.53308e-11
2451 1 0.000635 -0.0119714 -0.001905 -0.013068 6.94679e-07 2.7266e-05 8.76463e-06 3.55941e-10 6.74304e-12
2536 1 0.000635 -0.0108715 -0.00127 -0.013068 -2.00146e-07 -7.88162e-09 -5.58823e-06 3.01377e-10 6.33506e-35
2621 1 0.000635 -0.00977167 -0.001905 -0.013068 -1.44592e-16 -1.19229e-17 2.16e-11 5.26426e-25 6.39971e-35
2707 1 0.000635 -0.00867182 -0.00127 -0.013068 -7.2301e-17 5.96909e-18 2.16e-11 5.26426e-25 1.61609e-35
2792 1 0.000635 -0.00757197 -0.001905 -0.013068 1.44605e-16 -1.19229e-17 2.16e-11 0 3.29682e-35
2878 1 0.000635 -0.00647211 -0.00127 -0.013068 -1.44605e-16 1.19331e-17 2.16e-11 0 3.23218e-35
2963 1 0.000635 -0.00537226 -0.001905 -0.013068 1.44602e-16 -1.19246e-17 2.16e-11 0 3.29682e-35
3050 1 0.000635 -0.00427241 -0.00127 -0.013068 -1.13613e-16 5.96993e-18 2.16e-11 0 2.13324e-35
3136 1 0.000635 -0.00317256 -0.001905 -0.013068 4.13081e-17 -1.19229e-17 2.16e-11 0 5.81792e-36
3223 1 0.000635 -0.0020727 -0.00127 -0.013068 0 7.6233e-21 2.16e-11 0 0
3309 1 0.000635 -0.000972852 -0.001905 -0.013068 0 -1.19229e-17 2.16e-11 0 6.46435e-37
3396 1 0.000635 0.000127 -0.00127 -0.013068 0 6.77626e-21 2.16e-11 0 0
3482 1 0.000635 0.00122685 -0.001905 -0.013068 0 -1.19229e-17 2.16e-11 0 6.46435e-37
3569 1 0.000635 0.0023267 -0.00127 -0.013068 -6.77626e-21 6.77626e-21 2.16e-11 0 0
3655 1 0.000635 0.00342656 -0.001905 -0.013068 2.06608e-17 -1.19229e-17 2.16e-11 0 1.93931e-36
3742 1 0.000635 0.00452641 -0.00127 -0.013068 4.13149e-17 1.19331e-17 2.16e-11 5.26426e-25 1.93931e-35
3828 1 0.000635 0.00562626 -0.001905 -0.013068 -1.44599e-16 -1.19229e-17 2.16e-11 0 3.29682e-35
3914 1 0.000635 0.00672611 -0.00127 -0.013068 7.23078e-17 5.96909e-18 2.16e-11 5.26426e-25 1.61609e-35
3999 1 0.000635 0.00782597 -0.001905 -0.013068 -6.77626e-21 -1.19229e-17 2.16e-11 5.26426e-25 6.46435e-37
4085 1 0.000635 0.00892582 -0.00127 -0.013068 -6.77626e-21 6.77626e-21 2.16e-11 0 0
4170 1 0.000635 0.0100257 -0.001905 -0.013068 1.44599e-16 -1.19229e-17 2.16e-11 0 6.39971e-35
4256 1 0.000635 0.0111255 -0.00127 -0.013068 1.07439e-07 -5.14637e-09 -4.12175e-06 1.62352e-10 6.33506e-35
4340 1 0.000635 0.0122254 -0.001905 -0.013068 1.37141e-05 3.32692e-06 9.69557e-06 1.90064e-10 7.43735e-13
4425 1 0.000635 0.0133 -0.00126979 -0.0128332 1.03574e-10 -1.23453e-11 -5.04243e-10 2.0799e-10 3.27884e-12
2368 1 0.000635 -0.0130248 7.10227e-16 -0.0127508 -9.08658e-11 -1.38768e-13 -2.92761e-10 3.47205e-10 1.18592e-11
2452 1 0.000635 -0.0119714 -0.000635 -0.013068 -8.71903e-06 8.38947e-06 1.19098e-05 3.43533e-10 9.48858e-13
2622 1 0.000635 -0.00977167 -0.000635 -0.013068 -1.44599e-16 -8.47033e-21 2.16e-11 0 6.33506e-35
2793 1 0.000635 -0.00757197 -0.000635 -0.013068 1.44604e-16 -1.19339e-17 2.16e-11 5.26426e-25 3.23218e-35
2964 1 0.000635 -0.00537226 -0.000635 -0.013068 1.44604e-16 -1.19365e-17 2.16e-11 0 3.23218e-35
3137 1 0.000635 -0.00317256 -0.000635 -0.013068 4.13183e-17 -8.47033e-21 2.16e-11 0 5.17148e-36
3310 1 0.000635 -0.000972852 -0.000635 -0.013068 0 -8.47033e-21 2.16e-11 0 0
3483 1 0.000635 0.00122685 -0.000635 -0.013068 0 -8.47033e-21 2.16e-11 0 0
3656 1 0.000635 0.00342656 -0.000635 -0.013068 3.09811e-17 -5.97078e-18 2.16e-11 5.26426e-25 3.23218e-36
3829 1 0.000635 0.00562626 -0.000635 -0.013068 -1.44597e-16 -1.19339e-17 2.16e-11 5.26426e-25 3.23218e-35
4000 1 0.000635 0.00782597 -0.000635 -0.013068 0 -8.47033e-21 2.16e-11 0 0
4171 1 0.000635 0.0100257 -0.000635 -0.013068 1.44599e-16 -8.47033e-21 2.16e-11 0 6.33506e-35
4341 1 0.000635 0.0122254 -0.000635 -0.013068 3.00183e-06 1.88382e-06 7.03888e-06 1.99454e-10 7.01014e-14
4426 1 0.000635 0.0133002 6.74909e-16 -0.0128343 4.5813e-11 -8.64434e-14 -3.24138e-10 2.10424e-10 1.50883e-12
2453 1 0.000635 -0.0119714 0.000635 -0.013068 -8.71903e-06 -8.38947e-06 1.19098e-05 3.43533e-10 9.48858e-13
2537 1 0.000635 -0.0108715 0 -0.013068 -1.99642e-07 -1.13037e-17 -5.58067e-06 3.00544e-10 6.33506e-35
2623 1 0.000635 -0.00977167 0.000635 -0.013068 -1.44599e-16 -3.38813e-21 2.16e-11 0 6.33506e-35
2708 1 0.000635 -0.00867182 0 -0.013068 -8.26247e-17 5.92923e-21 2.16e-11 0 2.06859e-35
2794 1 0.000635 -0.00757197 0.000635 -0.013068 1.44602e-16 -3.38813e-21 2.16e-11 0 3.23218e-35
2879 1 0.000635 -0.00647211 0 -0.013068 -1.44605e-16 5.0822e-21 2.16e-11 0 3.23218e-35
2965 1 0.000635 -0.00537226 0.000635 -0.013068 1.44602e-16 -3.38813e-21 2.16e-11 0 3.23218e-35
3051 1 0.000635 -0.00427241 0 -0.013068 -1.03282e-16 5.92923e-21 2.16e-11 0 1.68073e-35
3138 1 0.000635 -0.00317256 0.000635 -0.013068 4.13149e-17 -3.38813e-21 2.16e-11 0 5.17148e-36
3224 1 0.000635 -0.0020727 0 -0.013068 0 6.77626e-21 2.16e-11 0 0
3311 1 0.000635 -0.000972852 0.000635 -0.013068 0 -3.38813e-21 2.16e-11 0 0
3397 1 0.000635 0.000127 0 -0.013068 0 6.77626e-21 2.16e-11 0 0
3484 1 0.000635 0.00122685 0.000635 -0.013068 0 -3.38813e-21 2.16e-11 0 0
3570 1 0.000635 0.0023267 0 -0.013068 -3.38813e-21 5.0822e-21 2.16e-11 5.26426e-25 0
3657 1 0.000635 0.00342656 0.000635 -0.013068 2.06574e-17 -3.38813e-21 2.16e-11 0 1.29287e-36
3743 1 0.000635 0.00452641 0 -0.013068 4.13132e-17 5.92923e-21 2.16e-11 0 1.29287e-35
3830 1 0.000635 0.00562626 0.000635 -0.013068 -1.44595e-16 -3.38813e-21 2.16e-11 0 3.23218e-35
3915 1 0.000635 0.00672611 0 -0.013068 8.26315e-17 5.92923e-21 2.16e-11 0 2.06859e-35
4001 1 0.000635 0.00782597 0.000635 -0.013068 0 -3.38813e-21 2.16e-11 0 0
4086 1 0.000635 0.00892582 0 -0.013068 -6.77626e-21 6.77626e-21 2.16e-11 0 0
4172 1 0.000635 0.0100257 0.000635 -0.013068 1.44599e-16 -3.38813e-21 2.16e-11 0 6.33506e-35
4257 1 0.000635 0.0111255 0 -0.013068 1.09619e-07 1.34001e-18 -4.14128e-06 1.63921e-10 6.33506e-35
4342 1 0.000635 0.0122254 0.000635 -0.013068 3.00183e-06 -1.88382e-06 7.03888e-06 1.99454e-10 7.01014e-14
2369 1 0.000635 -0.013025 0.00126946 -0.0127516 2.10185e-11 1.93366e-12 3.3688e-11 3.51722e-10 1.53308e-11
2454 1 0.000635 -0.0119714 0.001905 -0.013068 6.94679e-07 -2.7266e-05 8.76463e-06 3.55941e-10 6.74304e-12
2538 1 0.000635 -0.0108715 0.00127 -0.013068 -2.00146e-07 7.88162e-09 -5.58823e-06 3.01377e-10 6.33506e-35
2624 1 0.000635 -0.00977167 0.001905 -0.013068 -1.44595e-16 1.19221e-17 2.16e-11 0 6.39971e-35
2709 1 0.000635 -0.00867182 0.00127 -0.013068 -8.26264e-17 0 2.16e-11 0 2.06859e-35
2795 1 0.000635 -0.00757197 0.001905 -0.013068 1.44604e-16 1.19221e-17 2.16e-11 0 3.29682e-35
2880 1 0.000635 -0.00647211 0.00127 -0.013068 -1.44605e-16 0 2.16e-11 0 3.23218e-35
2966 1 0.000635 -0.00537226 0.001905 -0.013068 1.44604e-16 1.19238e-17 2.16e-11 0 3.29682e-35
3052 1 0.000635 -0.00427241 0.00127 -0.013068 -1.0328e-16 0 2.16e-11 0 1.68073e-35
3139 1 0.000635 -0.00317256 0.001905 -0.013068 4.13115e-17 1.19229e-17 2.16e-11 0 5.81792e-36
3225 1 0.000635 -0.0020727 0.00127 -0.013068 0 0 2.16e-11 0 0
3312 1 0.000635 -0.000972852 0.001905 -0.013068 0 1.19212e-17 2.16e-11 0 6.46435e-37
3398 1 0.000635 0.000127 0.00127 -0.013068 0 0 2.16e-11 0 0
3485 1 0.000635 0.00122685 0.001905 -0.013068 0 1.19212e-17 2.16e-11 0 6.46435e-37
3571 1 0.000635 0.0023267 0.00127 -0.013068 -6.77626e-21 0 2.16e-11 0 0
3658 1 0.000635 0.00342656 0.001905 -0.013068 2.06591e-17 1.19221e-17 2.16e-11 0 1.93931e-36
3744 1 0.000635 0.00452641 0.00127 -0.013068 4.13115e-17 0 2.16e-11 0 1.29287e-35
3831 1 0.000635 0.00562626 0.001905 -0.013068 -1.44597e-16 1.19221e-17 2.16e-11 0 3.29682e-35
3916 1 0.000635 0.00672611 0.00127 -0.013068 8.26331e-17 0 2.16e-11 0 2.06859e-35
4002 1 0.000635 0.00782597 0.001905 -0.013068 -3.38813e-21 1.19221e-17 2.16e-11 0 6.46435e-37
4087 1 0.000635 0.00892582 0.00127 -0.013068 -6.77626e-21 0 2.16e-11 0 0
4173 1 0.000635 0.0100257 0.001905 -0.013068 1.44599e-16 1.19212e-17 2.16e-11 0 6.39971e-35
4258 1 0.000635 0.0111255 0.00127 -0.013068 1.07439e-07 5.14637e-09 -4.12175e-06 1.62352e-10 6.33506e-35
4343 1 0.000635 0.0122254 0.001905 -0.013068 1.37141e-05 -3.32692e-06 9.69557e-06 1.90064e-10 7.43735e-13
4427 1 0.000635 0.0133 0.00126979 -0.0128332 1.03669e-10 1.24212e-11 -5.04216e-10 2.0799e-10 3.27884e-12
2370 1 0.000635 -0.0130249 0.00253883 -0.0127517 -2.60955e-11 3.15632e-13 -7.75293e-11 3.64894e-10 2.93716e-11
2455 1 0.000635 -0.0119714 0.003175 -0.013068 2.41282e-05 -5.12624e-05 1.22782e-06 3.58095e-10 2.56741e-11
2539 1 0.000635 -0.0108715 0.00254 -0.013068 -2.02965e-07 8.4737e-09 -5.63701e-06 3.06803e-10 6.33506e-35
2625 1 0.000635 -0.00977167 0.003175 -0.013068 -1.3427e-16 -4.1748e-17 2.16e-11 5.26426e-25 5.81792e-35
2710 1 0.000635 -0.00867182 0.00254 -0.013068 -7.2301e-17 5.97417e-18 2.16e-11 0 1.61609e-35
2796 1 0.000635 -0.00757197 0.003175 -0.013068 1.44602e-16 -4.77053e-17 2.16e-11 5.26426e-25 3.55539e-35
2881 1 0.000635 -0.00647211 0.00254 -0.013068 -1.44605e-16 1.19365e-17 2.16e-11 0 3.23218e-35
2967 1 0.000635 -0.00537226 0.003175 -0.013068 1.44604e-16 -4.7707e-17 2.16e-11 0 3.55539e-35
3053 1 0.000635 -0.00427241 0.00254 -0.013068 -1.03284e-16 1.19373e-17 2.16e-11 5.26426e-25 1.93931e-35
3140 1 0.000635 -0.00317256 0.003175 -0.013068 3.09963e-17 -4.17472e-17 2.16e-11 1.05285e-24 6.46435e-36
3226 1 0.000635 -0.0020727 0.00254 -0.013068 0 1.43996e-20 2.16e-11 0 0
3313 1 0.000635 -0.000972852 0.003175 -0.013068 0 -3.57823e-17 2.16e-11 1.05285e-24 3.23218e-36
3399 1 0.000635 0.000127 0.00254 -0.013068 0 1.35525e-20 2.16e-11 0 0
3486 1 0.000635 0.00122685 0.003175 -0.013068 0 -3.57823e-17 2.16e-11 1.05285e-24 3.23218e-36
3572 1 0.000635 0.0023267 0.00254 -0.013068 -6.77626e-21 1.35525e-20 2.16e-11 0 0
3659 1 0.000635 0.00342656 0.003175 -0.013068 3.09777e-17 -4.17463e-17 2.16e-11 1.05285e-24 6.46435e-36
3745 1 0.000635 0.00452641 0.00254 -0.013068 4.13115e-17 1.19382e-17 2.16e-11 5.26426e-25 1.93931e-35
3832 1 0.000635 0.00562626 0.003175 -0.013068 -1.44595e-16 -4.77053e-17 2.16e-11 5.26426e-25 3.55539e-35
3917 1 0.000635 0.00672611 0.00254 -0.013068 7.23095e-17 5.97502e-18 2.16e-11 0 1.61609e-35
4003 1 0.000635 0.00782597 0.003175 -0.013068 0 -3.57823e-17 2.16e-11 1.05285e-24 3.23218e-36
4088 1 0.000635 0.00892582 0.00254 -0.013068 -8.47033e-21 1.27055e-20 2.16e-11 0 0
4174 1 0.000635 0.0100257 0.003175 -0.013068 1.3427e-16 -4.1748e-17 2.16e-11 5.26426e-25 5.81792e-35
4259 1 0.000635 0.0111255 0.00254 -0.013068 9.47696e-08 3.12655e-08 -3.95562e-06 1.49714e-10 6.33506e-35
4344 1 0.000635 0.0122254 0.003175 -0.013068 5.12437e-05 -5.57298e-06 1.60419e-05 1.97105e-10 8.67663e-12
4428 1 0.000635 0.0133006 0.00253944 -0.0128344 -1.4898e-10 1.6789e-11 5.09171e-10 2.18846e-10 1.63532e-11
2371 1 0.000635 -0.0130227 0.00380789 -0.0127454 1.26689e-10 -5.20646e-12 2.85802e-10 3.71668e-10 9.44141e-11
2456 1 0.000635 -0.0119714 0.004445 -0.013068 -0.000158728 0.000114225 5.67058e-05 3.28943e-10 1.23719e-10