ITEM: TIMESTEP
1310000
ITEM: NUMBER OF ATOMS
6793
ITEM: BOX BOUNDS ff ff ff
-8.9999999999999997e-02 8.9999999999999997e-02
-8.9999999999999997e-02 8.9999999999999997e-02
-4.0000000000000001e-02 4.0000000000000001e-02
ITEM: ATOMS id type radius x y z fx fy fz c_bendingE c_stretchingE
3213 1 0.000635 -0.00207074 -0.013952 -0.0139424 -1.4581e-11 -1.18703e-11 -4.25785e-11 3.68679e-09 3.62344e-10
3299 1 0.000635 -0.000974265 -0.0145874 -0.0139077 -3.31508e-12 -6.45311e-12 -2.11169e-11 3.46588e-09 1.1398e-10
3386 1 0.000635 0.000126013 -0.0139643 -0.014019 1.04311e-11 2.10603e-12 4.2037e-11 2.58445e-09 4.25576e-11
3041 1 0.000635 -0.00426453 -0.0126824 -0.0139446 -1.10901e-11 -1.26756e-12 -3.52764e-11 2.25779e-09 1.39262e-10
3127 1 0.000635 -0.00316662 -0.0133163 -0.0139442 -1.6586e-11 -8.99276e-12 -6.12174e-11 2.71571e-09 3.67958e-10
3214 1 0.000635 -0.0020727 -0.0127 -0.014148 -9.58171e-05 1.02238e-05 -1.26869e-06 3.15057e-09 7.53778e-11
3300 1 0.000635 -0.000973266 -0.0133351 -0.0141185 2.37472e-12 1.6927e-11 2.09156e-10 2.39616e-09 3.46243e-11
3387 1 0.000635 0.000127 -0.0127 -0.014148 -4.23157e-05 -6.41774e-05 3.66912e-06 2.52114e-10 1.80617e-11
3473 1 0.000635 0.0012259 -0.0133336 -0.0140889 1.97811e-12 -4.74992e-12 -3.56912e-11 3.04652e-10 1.2059e-10
3560 1 0.000635 0.0023267 -0.0127 -0.014148 7.01639e-05 -0.00024618 0.000101568 4.16749e-10 2.45892e-10
3646 1 0.000635 0.00340959 -0.0132967 -0.0138445 -3.09183e-11 7.41136e-11 2.14945e-10 3.94803e-10 2.5415e-10
3733 1 0.000635 0.00451598 -0.0126784 -0.0139181 6.34809e-12 1.18221e-12 -3.5691e-11 2.66098e-10 4.10691e-11
2870 1 0.000635 -0.00646243 -0.011415 -0.0139522 -8.36736e-12 2.87486e-12 -8.59508e-12 1.77538e-09 5.52663e-11
2955 1 0.000635 -0.00536321 -0.0120486 -0.0139473 -1.02727e-11 -7.22119e-13 -2.63754e-11 1.96466e-09 6.23991e-11
3042 1 0.000635 -0.00427241 -0.01143 -0.014148 3.62064e-09 6.41743e-05 -1.56773e-05 1.72899e-09 1.98099e-11
3128 1 0.000635 -0.00317256 -0.012065 -0.014148 -4.04225e-05 9.77993e-05 -1.89431e-05 2.18928e-09 7.76602e-11
3215 1 0.000635 -0.0020727 -0.01143 -0.014148 3.25855e-08 -8.64959e-08 -3.60756e-06 1.23982e-10 5.17148e-36
3301 1 0.000635 -0.000972852 -0.012065 -0.014148 4.5372e-08 -2.40415e-05 -2.83921e-06 1.1664e-10 2.59897e-12
3388 1 0.000635 0.000127 -0.01143 -0.014148 8.69848e-09 0 -1.13717e-06 2.45032e-11 5.17148e-36
3474 1 0.000635 0.00122685 -0.012065 -0.014148 -2.97536e-08 -1.79692e-07 -4.47571e-06 2.72149e-10 5.05177e-17
3561 1 0.000635 0.0023267 -0.01143 -0.014148 1.65967e-07 -1.03168e-07 -5.72605e-06 3.45707e-10 5.17148e-36
3647 1 0.000635 0.00342656 -0.012065 -0.014148 5.70391e-05 3.98381e-05 3.24704e-07 3.13619e-10 4.40556e-11
3734 1 0.000635 0.00452641 -0.01143 -0.014148 2.54875e-05 1.77685e-05 2.99711e-06 2.13574e-10 8.75756e-12
3820 1 0.000635 0.00561909 -0.0120508 -0.0139613 1.12428e-11 -1.23029e-11 -4.2266e-11 1.99058e-10 9.01744e-12
3906 1 0.000635 0.00672106 -0.0114204 -0.0139934 -1.11195e-12 1.49941e-11 7.54801e-11 1.64096e-10 1.93912e-12
4077 1 0.000635 0.0089106 -0.0114001 -0.0137902 2.8304e-11 -1.54924e-12 -4.73971e-11 1.73933e-09 1.28093e-11
2785 1 0.000635 -0.0075619 -0.0107813 -0.0139576 -8.1363e-12 4.42524e-12 -1.53224e-11 1.65324e-09 8.0643e-11
2956 1 0.000635 -0.00537226 -0.010795 -0.014148 3.02439e-05 3.8354e-05 -1.32094e-05 1.44903e-09 8.50509e-12
3129 1 0.000635 -0.00317256 -0.010795 -0.014148 -9.75198e-09 -7.39568e-08 -3.57057e-06 1.2144e-10 6.46435e-36
3302 1 0.000635 -0.000972852 -0.010795 -0.014148 3.64352e-09 -1.69407e-21 -2.60414e-07 1.28219e-12 5.17148e-36
3475 1 0.000635 0.00122685 -0.010795 -0.014148 8.41633e-09 0 -5.2087e-07 5.13158e-12 5.17148e-36
3648 1 0.000635 0.00342656 -0.010795 -0.014148 1.11597e-07 -6.62002e-08 -4.32533e-06 1.89698e-10 1.0343e-35
3821 1 0.000635 0.00562626 -0.010795 -0.014148 1.41275e-05 1.00487e-05 2.96428e-06 1.47851e-10 2.71751e-12
3992 1 0.000635 0.00782288 -0.0107894 -0.0140255 3.64542e-12 1.74763e-11 7.17272e-11 8.95557e-10 5.16169e-11
2615 1 0.000635 -0.00975973 -0.00951191 -0.0139546 -1.63677e-11 2.37605e-12 -4.12134e-11 1.73615e-09 1.94493e-10
2700 1 0.000635 -0.00866123 -0.0101472 -0.0139602 -1.81057e-11 -5.72799e-12 -7.59579e-11 1.61124e-09 1.20591e-10
2786 1 0.000635 -0.00757197 -0.009525 -0.014148 7.45695e-05 3.52696e-06 -9.88853e-06 1.04351e-09 4.16546e-11
2871 1 0.000635 -0.00647211 -0.01016 -0.014148 5.42182e-05 1.88169e-05 -1.13059e-05 1.23905e-09 1.93933e-11
2957 1 0.000635 -0.00537226 -0.009525 -0.014148 -4.97506e-08 -5.21498e-08 -3.45149e-06 1.1351e-10 3.74932e-35
3043 1 0.000635 -0.00427241 -0.01016 -0.014148 -3.34848e-08 -6.24005e-08 -3.52333e-06 1.18268e-10 2.71503e-35
3130 1 0.000635 -0.00317256 -0.009525 -0.014148 2.0671e-17 0 2.16e-11 1.05285e-24 6.46435e-36
3216 1 0.000635 -0.0020727 -0.01016 -0.014148 -6.77626e-21 0 2.16e-11 0 5.17148e-36
3303 1 0.000635 -0.000972852 -0.009525 -0.014148 0 0 2.16e-11 0 5.17148e-36
3389 1 0.000635 0.000127 -0.01016 -0.014148 0 0 2.16e-11 0 5.17148e-36
3476 1 0.000635 0.00122685 -0.009525 -0.014148 0 0 2.16e-11 0 5.17148e-36
3562 1 0.000635 0.0023267 -0.01016 -0.014148 0 0 2.16e-11 0 5.17148e-36
3649 1 0.000635 0.00342656 -0.009525 -0.014148 4.13115e-17 0 2.16e-11 0 1.0343e-35
3735 1 0.000635 0.00452641 -0.01016 -0.014148 6.66615e-08 -4.38638e-08 -3.39141e-06 1.1386e-10 3.10289e-35
3822 1 0.000635 0.00562626 -0.009525 -0.014148 4.86768e-08 -2.52564e-08 -2.727e-06 7.37285e-11 3.74932e-35
3907 1 0.000635 0.00672611 -0.01016 -0.014148 2.1628e-05 -6.91708e-06 4.1694e-06 1.16774e-10 2.98792e-12
3993 1 0.000635 0.00782597 -0.009525 -0.014148 1.46667e-05 -2.6376e-05 2.43216e-06 3.38603e-10 2.73804e-12
4078 1 0.000635 0.00892375 -0.0101539 -0.014034 3.13745e-12 1.90034e-11 1.07495e-10 1.7533e-09 9.16945e-11
4164 1 0.000635 0.0100089 -0.00950309 -0.0139041 9.04221e-12 1.73345e-11 3.92245e-11 1.58115e-09 1.43887e-10
2446 1 0.000635 -0.0119594 -0.0082475 -0.0139142 1.78156e-11 4.38806e-11 1.04658e-10 2.74076e-09 2.3355e-11
2530 1 0.000635 -0.0108585 -0.0088788 -0.0139406 1.08806e-11 3.84976e-11 1.23287e-10 2.27059e-09 7.25815e-11
2616 1 0.000635 -0.00977167 -0.008255 -0.014148 -2.93367e-05 -8.97836e-05 1.8193e-05 6.07476e-10 4.58514e-11
2701 1 0.000635 -0.00867182 -0.00889 -0.014148 9.57344e-05 -9.10706e-06 -9.56505e-06 8.3243e-10 7.542e-11
2787 1 0.000635 -0.00757197 -0.008255 -0.014148 -6.50031e-08 -4.10158e-08 -3.38675e-06 1.09209e-10 4.0079e-35
2872 1 0.000635 -0.00647211 -0.00889 -0.014148 -5.96788e-08 -4.4512e-08 -3.3849e-06 1.09123e-10 3.74932e-35
2958 1 0.000635 -0.00537226 -0.008255 -0.014148 1.44607e-16 -7.15799e-17 2.16e-11 5.26426e-25 4.0079e-35
3044 1 0.000635 -0.00427241 -0.00889 -0.014148 -1.03289e-16 -4.76841e-17 2.16e-11 1.05285e-24 2.71503e-35
3131 1 0.000635 -0.00317256 -0.008255 -0.014148 3.09912e-17 -7.75431e-17 2.16e-11 5.26426e-25 1.87466e-35
3217 1 0.000635 -0.0020727 -0.00889 -0.014148 -3.38813e-21 -4.76866e-17 2.16e-11 0 5.17148e-36
3304 1 0.000635 -0.000972852 -0.008255 -0.014148 0 -7.15833e-17 2.16e-11 0 1.0343e-35
3390 1 0.000635 0.000127 -0.00889 -0.014148 0 -4.76866e-17 2.16e-11 0 5.17148e-36
3477 1 0.000635 0.00122685 -0.008255 -0.014148 0 -7.15833e-17 2.16e-11 0 1.0343e-35
3563 1 0.000635 0.0023267 -0.00889 -0.014148 0 -4.76858e-17 2.16e-11 0 5.17148e-36
3650 1 0.000635 0.00342656 -0.008255 -0.014148 4.13098e-17 -7.15825e-17 2.16e-11 0 1.0343e-35
3736 1 0.000635 0.00452641 -0.00889 -0.014148 4.13115e-17 -4.76841e-17 2.16e-11 0 3.10289e-35
3823 1 0.000635 0.00562626 -0.008255 -0.014148 -1.446e-16 -7.15791e-17 2.16e-11 0 4.0079e-35
3908 1 0.000635 0.00672611 -0.00889 -0.014148 2.59354e-08 -3.23061e-08 -2.36823e-06 5.44405e-11 1.68073e-35
3994 1 0.000635 0.00782597 -0.008255 -0.014148 -1.95477e-08 -8.09393e-08 -3.23426e-06 1.10798e-10 1.0343e-35
4079 1 0.000635 0.00892582 -0.00889 -0.014148 -8.19399e-05 9.81365e-05 -2.52627e-05 8.76976e-10 5.49645e-11
4165 1 0.000635 0.0100257 -0.008255 -0.014148 0.000290182 5.86981e-05 7.30829e-05 1.2414e-09 5.26739e-10
2362 1 0.000635 -0.0130577 -0.00761251 -0.0138507 -5.65839e-11 -2.1491e-11 -3.24793e-10 2.47168e-09 9.30549e-11
2447 1 0.000635 -0.0119684 -0.00698408 -0.0140404 -5.73603e-11 -4.66443e-12 -3.50335e-10 3.50323e-10 8.00144e-11
2531 1 0.000635 -0.010871 -0.00761972 -0.0141048 -5.21146e-12 1.39612e-11 -3.4157e-11 4.26093e-10 1.56326e-11
2617 1 0.000635 -0.00977167 -0.006985 -0.014148 -7.64036e-06 -4.35605e-06 -2.35847e-06 9.34615e-11 3.42306e-13
2702 1 0.000635 -0.00867182 -0.00762 -0.014148 -7.91912e-08 -2.43906e-08 -3.48374e-06 1.15859e-10 2.9736e-35
2788 1 0.000635 -0.00757197 -0.006985 -0.014148 1.44605e-16 -2.38958e-17 2.16e-11 0 4.0079e-35
2873 1 0.000635 -0.00647211 -0.00762 -0.014148 -1.44609e-16 2.38967e-17 2.16e-11 0 4.0079e-35
2959 1 0.000635 -0.00537226 -0.006985 -0.014148 1.44605e-16 -2.38958e-17 2.16e-11 0 4.0079e-35
3045 1 0.000635 -0.00427241 -0.00762 -0.014148 -1.13623e-16 2.98573e-17 2.16e-11 0 2.90896e-35
3132 1 0.000635 -0.00317256 -0.006985 -0.014148 3.09912e-17 -2.98573e-17 2.16e-11 0 1.87466e-35
3218 1 0.000635 -0.0020727 -0.00762 -0.014148 -1.69407e-21 2.38958e-17 2.16e-11 0 1.0343e-35
3305 1 0.000635 -0.000972852 -0.006985 -0.014148 0 -2.38967e-17 2.16e-11 0 1.0343e-35
3391 1 0.000635 0.000127 -0.00762 -0.014148 0 2.38967e-17 2.16e-11 0 1.0343e-35
3478 1 0.000635 0.00122685 -0.006985 -0.014148 0 -2.38967e-17 2.16e-11 0 1.0343e-35
3564 1 0.000635 0.0023267 -0.00762 -0.014148 0 2.38967e-17 2.16e-11 0 1.0343e-35
3651 1 0.000635 0.00342656 -0.006985 -0.014148 4.13081e-17 -2.38967e-17 2.16e-11 0 1.0343e-35
3737 1 0.000635 0.00452641 -0.00762 -0.014148 4.13217e-17 2.38958e-17 2.16e-11 0 2.06859e-35
3824 1 0.000635 0.00562626 -0.006985 -0.014148 -1.44599e-16 -2.3895e-17 2.16e-11 0 4.0079e-35
3909 1 0.000635 0.00672611 -0.00762 -0.014148 6.19757e-17 2.38958e-17 2.16e-11 0 2.9736e-35
3995 1 0.000635 0.00782597 -0.006985 -0.014148 -6.77626e-21 -2.38967e-17 2.16e-11 0 1.0343e-35
4080 1 0.000635 0.00892582 -0.00762 -0.014148 -7.09618e-08 -1.54462e-07 -6.00052e-06 5.17343e-10 1.0343e-35
4166 1 0.000635 0.0100257 -0.006985 -0.014148 -9.42867e-05 5.39683e-05 -1.91668e-05 9.48161e-10 5.51028e-11
4251 1 0.000635 0.0111179 -0.00761208 -0.0140008 1.07469e-11 2.59397e-12 -1.06118e-11 1.52235e-09 8.09788e-10
2363 1 0.000635 -0.0130489 -0.00634346 -0.013857 -1.49448e-10 -8.99206e-12 -6.78349e-10 4.21722e-10 1.00935e-10
2448 1 0.000635 -0.0119705 -0.00571551 -0.0141016 5.75677e-12 -1.77037e-12 -2.04626e-11 2.73078e-10 9.60356e-11
2532 1 0.000635 -0.0108715 -0.00635 -0.014148 -6.27249e-05 -7.10183e-05 7.22304e-06 1.24623e-10 3.38927e-11
2618 1 0.000635 -0.00977167 -0.005715 -0.014148 -3.11653e-09 5.39799e-09 -9.47804e-07 1.70084e-11 6.85221e-35
2703 1 0.000635 -0.00867182 -0.00635 -0.014148 -6.07736e-11 1.05263e-10 -3.80638e-07 2.7391e-12 2.9736e-35
2789 1 0.000635 -0.00757197 -0.005715 -0.014148 1.44602e-16 4.76832e-17 2.16e-11 0 3.74932e-35
2874 1 0.000635 -0.00647211 -0.00635 -0.014148 -1.44609e-16 7.15816e-17 2.16e-11 0 4.0079e-35
2960 1 0.000635 -0.00537226 -0.005715 -0.014148 1.44604e-16 4.76841e-17 2.16e-11 5.26426e-25 3.74932e-35
3046 1 0.000635 -0.00427241 -0.00635 -0.014148 -1.13621e-16 7.75431e-17 2.16e-11 0 2.90896e-35
3133 1 0.000635 -0.00317256 -0.005715 -0.014148 2.0671e-17 4.76858e-17 2.16e-11 5.26426e-25 6.46435e-36
3219 1 0.000635 -0.0020727 -0.00635 -0.014148 -5.0822e-21 7.15842e-17 2.16e-11 0 1.0343e-35
3306 1 0.000635 -0.000972852 -0.005715 -0.014148 0 4.76866e-17 2.16e-11 0 5.17148e-36
3392 1 0.000635 0.000127 -0.00635 -0.014148 0 7.1585e-17 2.16e-11 0 1.0343e-35
3479 1 0.000635 0.00122685 -0.005715 -0.014148 0 4.76866e-17 2.16e-11 0 5.17148e-36
3565 1 0.000635 0.0023267 -0.00635 -0.014148 0 7.15842e-17 2.16e-11 0 1.0343e-35
3652 1 0.000635 0.00342656 -0.005715 -0.014148 4.13098e-17 4.76858e-17 2.16e-11 0 1.0343e-35
3738 1 0.000635 0.00452641 -0.00635 -0.014148 4.13183e-17 7.15816e-17 2.16e-11 0 2.06859e-35
3825 1 0.000635 0.00562626 -0.005715 -0.014148 -1.44597e-16 4.76841e-17 2.16e-11 0 3.74932e-35
3910 1 0.000635 0.00672611 -0.00635 -0.014148 6.19774e-17 7.15825e-17 2.16e-11 0 2.9736e-35
3996 1 0.000635 0.00782597 -0.005715 -0.014148 -6.77626e-21 4.76849e-17 2.16e-11 0 5.17148e-36
4081 1 0.000635 0.00892582 -0.00635 -0.014148 -1.34376e-08 -2.32745e-08 -1.3003e-06 3.20749e-11 1.0343e-35
4167 1 0.000635 0.0100257 -0.005715 -0.014148 -4.18188e-08 -7.24322e-08 -3.71012e-06 2.67825e-10 6.85221e-35
4252 1 0.000635 0.0111255 -0.00635 -0.014148 -0.000298125 -4.27537e-05 -6.25387e-05 1.3735e-09 2.92694e-10
4337 1 0.000635 0.012221 -0.00571716 -0.0140837 -6.24213e-12 1.6414e-11 9.26372e-11 1.98178e-09 7.3652e-10
2364 1 0.000635 -0.0130337 -0.00507471 -0.0138406 4.70488e-11 -8.30266e-12 5.58299e-11 3.46396e-10 2.35911e-10
2533 1 0.000635 -0.0108715 -0.00508 -0.014148 -1.63635e-05 -9.58963e-06 -3.64041e-06 2.3991e-10 1.58989e-12
2704 1 0.000635 -0.00867182 -0.00508 -0.014148 -6.19774e-17 -2.3845e-17 2.16e-11 0 1.42216e-35
2875 1 0.000635 -0.00647211 -0.00508 -0.014148 -1.44605e-16 -2.38442e-17 2.16e-11 0 3.49075e-35
3047 1 0.000635 -0.00427241 -0.00508 -0.014148 -1.03287e-16 -2.38433e-17 2.16e-11 1.57928e-24 2.45645e-35
3220 1 0.000635 -0.0020727 -0.00508 -0.014148 -3.38813e-21 -2.38442e-17 2.16e-11 0 2.58574e-36
3393 1 0.000635 0.000127 -0.00508 -0.014148 0 -2.38442e-17 2.16e-11 0 2.58574e-36
3566 1 0.000635 0.0023267 -0.00508 -0.014148 -3.38813e-21 -2.38459e-17 2.16e-11 0 2.58574e-36
3739 1 0.000635 0.00452641 -0.00508 -0.014148 4.13081e-17 -2.38433e-17 2.16e-11 5.26426e-25 2.84431e-35
3911 1 0.000635 0.00672611 -0.00508 -0.014148 6.19859e-17 -2.38442e-17 2.16e-11 0 1.42216e-35
4082 1 0.000635 0.00892582 -0.00508 -0.014148 -8.47033e-21 -2.3845e-17 2.16e-11 0 2.58574e-36
4253 1 0.000635 0.0111255 -0.00508 -0.014148 -5.0385e-05 2.88496e-05 -1.15397e-05 9.47064e-10 1.5605e-11
4422 1 0.000635 0.0132979 -0.00507761 -0.0138925 2.08656e-11 3.76637e-12 -6.32465e-11 2.55011e-09 2.09663e-10
2365 1 0.000635 -0.0130166 -0.00380755 -0.0138066 -5.18681e-11 -9.09224e-13 -1.62075e-10 4.27977e-10 1.31268e-10
2449 1 0.000635 -0.0119714 -0.004445 -0.014148 -0.000163685 -0.000116774 6.18445e-05 3.7097e-10 1.3147e-10
2534 1 0.000635 -0.0108715 -0.00381 -0.014148 -1.82776e-07 -1.00057e-07 -5.66241e-06 3.10055e-10 4.65433e-35
2619 1 0.000635 -0.00977167 -0.004445 -0.014148 -3.90354e-09 6.76113e-09 -4.08724e-07 3.15949e-12 6.01185e-35
2705 1 0.000635 -0.00867182 -0.00381 -0.014148 -8.2623e-17 0 2.16e-11 1.05285e-24 2.06859e-35
2790 1 0.000635 -0.00757197 -0.004445 -0.014148 1.44602e-16 -5.96282e-17 2.16e-11 5.26426e-25 3.74932e-35
2876 1 0.000635 -0.00647211 -0.00381 -0.014148 -1.44605e-16 0 2.16e-11 0 3.23218e-35
2961 1 0.000635 -0.00537226 -0.004445 -0.014148 1.44604e-16 -5.9629e-17 2.16e-11 5.26426e-25 3.74932e-35
3048 1 0.000635 -0.00427241 -0.00381 -0.014148 -1.03291e-16 0 2.16e-11 0 1.68073e-35
3134 1 0.000635 -0.00317256 -0.004445 -0.014148 3.09963e-17 -5.36693e-17 2.16e-11 1.57928e-24 8.40366e-36
3221 1 0.000635 -0.0020727 -0.00381 -0.014148 -6.77626e-21 0 2.16e-11 2.10571e-24 0
3307 1 0.000635 -0.000972852 -0.004445 -0.014148 0 -4.77053e-17 2.16e-11 1.05285e-24 5.17148e-36
3394 1 0.000635 0.000127 -0.00381 -0.014148 0 0 2.16e-11 1.05285e-24 0
3480 1 0.000635 0.00122685 -0.004445 -0.014148 0 -4.77053e-17 2.16e-11 1.05285e-24 5.17148e-36
3567 1 0.000635 0.0023267 -0.00381 -0.014148 0 0 2.16e-11 2.10571e-24 0
3653 1 0.000635 0.00342656 -0.004445 -0.014148 3.09811e-17 -5.36701e-17 2.16e-11 1.05285e-24 8.40366e-36
3740 1 0.000635 0.00452641 -0.00381 -0.014148 4.13217e-17 7.70372e-34 2.16e-11 0 1.29287e-35
3826 1 0.000635 0.00562626 -0.004445 -0.014148 -1.44597e-16 -5.9629e-17 2.16e-11 5.26426e-25 3.74932e-35
3912 1 0.000635 0.00672611 -0.00381 -0.014148 8.26298e-17 0 2.16e-11 1.05285e-24 2.06859e-35
3997 1 0.000635 0.00782597 -0.004445 -0.014148 -3.38813e-21 -4.77061e-17 2.16e-11 1.05285e-24 5.17148e-36
4083 1 0.000635 0.00892582 -0.00381 -0.014148 -6.77626e-21 0 2.16e-11 1.05285e-24 0
4168 1 0.000635 0.0100257 -0.004445 -0.014148 1.78964e-08 3.09974e-08 -5.67436e-07 6.11334e-12 6.01185e-35
4254 1 0.000635 0.0111255 -0.00381 -0.014148 1.20854e-07 -3.24033e-08 -4.53512e-06 1.96959e-10 4.65433e-35
4338 1 0.000635 0.0122254 -0.004445 -0.014148 0.000147489 -0.000185126 4.18629e-05 2.12345e-09 2.72305e-10
4423 1 0.000635 0.0133003 -0.0038084 -0.0139085 5.51309e-11 4.65491e-12 -1.98497e-10 1.53423e-09 1.36505e-10
2366 1 0.000635 -0.0130189 -0.00253867 -0.0138125 1.48622e-11 -1.91548e-12 -7.01542e-13 4.11998e-10 3.88558e-11
2450 1 0.000635 -0.0119714 -0.003175 -0.014148 3.09998e-05 6.04817e-05 -1.11495e-06 4.10464e-10 3.62724e-11
2535 1 0.000635 -0.0108715 -0.00254 -0.014148 -2.28892e-07 -1.14166e-08 -5.97903e-06 3.4611e-10 6.33506e-35
2620 1 0.000635 -0.00977167 -0.003175 -0.014148 -1.3427e-16 4.1748e-17 2.16e-11 5.26426e-25 5.81792e-35
2706 1 0.000635 -0.00867182 -0.00254 -0.014148 -7.2301e-17 -5.97417e-18 2.16e-11 0 1.61609e-35
2791 1 0.000635 -0.00757197 -0.003175 -0.014148 1.44602e-16 4.77053e-17 2.16e-11 5.26426e-25 3.55539e-35
2877 1 0.000635 -0.00647211 -0.00254 -0.014148 -1.44605e-16 -1.19365e-17 2.16e-11 0 3.23218e-35
2962 1 0.000635 -0.00537226 -0.003175 -0.014148 1.44604e-16 4.7707e-17 2.16e-11 0 3.55539e-35
3049 1 0.000635 -0.00427241 -0.00254 -0.014148 -1.03284e-16 -1.19373e-17 2.16e-11 5.26426e-25 1.93931e-35
3135 1 0.000635 -0.00317256 -0.003175 -0.014148 3.09963e-17 4.17472e-17 2.16e-11 1.05285e-24 6.46435e-36
3222 1 0.000635 -0.0020727 -0.00254 -0.014148 0 -1.43996e-20 2.16e-11 0 0
3308 1 0.000635 -0.000972852 -0.003175 -0.014148 0 3.57823e-17 2.16e-11 1.05285e-24 3.23218e-36
3395 1 0.000635 0.000127 -0.00254 -0.014148 0 -1.35525e-20 2.16e-11 0 0
3481 1 0.000635 0.00122685 -0.003175 -0.014148 0 3.57823e-17 2.16e-11 1.05285e-24 3.23218e-36
3568 1 0.000635 0.0023267 -0.00254 -0.014148 -6.77626e-21 -1.35525e-20 2.16e-11 0 0
3654 1 0.000635 0.00342656 -0.003175 -0.014148 3.09777e-17 4.17463e-17 2.16e-11 1.05285e-24 6.46435e-36
3741 1 0.000635 0.00452641 -0.00254 -0.014148 4.13115e-17 -1.19382e-17 2.16e-11 5.26426e-25 1.93931e-35
3827 1 0.000635 0.00562626 -0.003175 -0.014148 -1.44595e-16 4.77053e-17 2.16e-11 5.26426e-25 3.55539e-35
3913 1 0.000635 0.00672611 -0.00254 -0.014148 7.23095e-17 -5.97502e-18 2.16e-11 0 1.61609e-35
3998 1 0.000635 0.00782597 -0.003175 -0.014148 0 3.57823e-17 2.16e-11 1.05285e-24 3.23218e-36
4084 1 0.000635 0.00892582 -0.00254 -0.014148 -8.47033e-21 -1.27055e-20 2.16e-11 0 0
4169 1 0.000635 0.0100257 -0.003175 -0.014148 1.3427e-16 4.1748e-17 2.16e-11 5.26426e-25 5.81792e-35
4255 1 0.000635 0.0111255 -0.00254 -0.014148 1.17855e-07 -3.48738e-08 -4.39777e-06 1.85399e-10 6.33506e-35
4339 1 0.000635 0.0122254 -0.003175 -0.014148 5.37906e-05 8.34141e-06 1.88007e-05 2.35228e-10 1.00189e-11
4424 1 0.000635 0.0132947 -0.00253932 -0.0138889 -5.71138e-11 -1.38136e-12 2.1233e-10 2.58272e-10 2.20627e-11
2367 1 0.000635 -0.0130189 -0.00126939 -0.0138118 -1.48715e-10 -1.66606e-12 -4.34126e-10 3.97565e-10 1.88454e-11
2451 1 0.000635 -0.0119714 -0.001905 -0.014148 1.90548e-06 3.02421e-05 8.97886e-06 4.0154e-10 8.2975e-12
2536 1 0.000635 -0.0108715 -0.00127 -0.014148 -2.26402e-07 -1.02147e-08 -5.93444e-06 3.40832e-10 6.33506e-35
2621 1 0.000635 -0.00977167 -0.001905 -0.014148 -1.44592e-16 -1.19229e-17 2.16e-11 5.26426e-25 6.39971e-35
2707 1 0.000635 -0.00867182 -0.00127 -0.014148 -7.2301e-17 5.96909e-18 2.16e-11 5.26426e-25 1.61609e-35
2792 1 0.000635 -0.00757197 -0.001905 -0.014148 1.44605e-16 -1.19229e-17 2.16e-11 0 3.29682e-35
2878 1 0.000635 -0.00647211 -0.00127 -0.014148 -1.44605e-16 1.19331e-17 2.16e-11 0 3.23218e-35
2963 1 0.000635 -0.00537226 -0.001905 -0.014148 1.44602e-16 -1.19246e-17 2.16e-11 0 3.29682e-35
3050 1 0.000635 -0.00427241 -0.00127 -0.014148 -1.13613e-16 5.96993e-18 2.16e-11 0 2.13324e-35
3136 1 0.000635 -0.00317256 -0.001905 -0.014148 4.13081e-17 -1.19229e-17 2.16e-11 0 5.81792e-36
3223 1 0.000635 -0.0020727 -0.00127 -0.014148 0 7.6233e-21 2.16e-11 0 0
3309 1 0.000635 -0.000972852 -0.001905 -0.014148 0 -1.19229e-17 2.16e-11 0 6.46435e-37
3396 1 0.000635 0.000127 -0.00127 -0.014148 0 6.77626e-21 2.16e-11 0 0
3482 1 0.000635 0.00122685 -0.001905 -0.014148 0 -1.19229e-17 2.16e-11 0 6.46435e-37
3569 1 0.000635 0.0023267 -0.00127 -0.014148 -6.77626e-21 6.77626e-21 2.16e-11 0 0
3655 1 0.000635 0.00342656 -0.001905 -0.014148 2.06608e-17 -1.19229e-17 2.16e-11 0 1.93931e-36
3742 1 0.000635 0.00452641 -0.00127 -0.014148 4.13149e-17 1.19331e-17 2.16e-11 5.26426e-25 1.93931e-35
3828 1 0.000635 0.00562626 -0.001905 -0.014148 -1.44599e-16 -1.19229e-17 2.16e-11 0 3.29682e-35
3914 1 0.000635 0.00672611 -0.00127 -0.014148 7.23078e-17 5.96909e-18 2.16e-11 5.26426e-25 1.61609e-35
3999 1 0.000635 0.00782597 -0.001905 -0.014148 -6.77626e-21 -1.19229e-17 2.16e-11 5.26426e-25 6.46435e-37
4085 1 0.000635 0.00892582 -0.00127 -0.014148 -6.77626e-21 6.77626e-21 2.16e-11 0 0
4170 1 0.000635 0.0100257 -0.001905 -0.014148 1.44599e-16 -1.19229e-17 2.16e-11 0 6.39971e-35
4256 1 0.000635 0.0111255 -0.00127 -0.014148 1.3207e-07 -4.93007e-09 -4.56051e-06 1.99275e-10 6.33506e-35
4340 1 0.000635 0.0122254 -0.001905 -0.014148 1.33261e-05 5.37474e-06 1.07823e-05 2.29735e-10 8.90998e-13
4425 1 0.000635 0.0132944 -0.00126974 -0.0138887 1.46331e-11 -2.4191e-12 -6.03193e-11 2.48206e-10 4.71993e-12
2368 1 0.000635 -0.0130185 8.50671e-17 -0.0138107 -1.58085e-10 -9.14916e-15 -4.64492e-10 3.92089e-10 1.40427e-11
2452 1 0.000635 -0.0119714 -0.000635 -0.014148 -7.86905e-06 9.14514e-06 1.24803e-05 3.87593e-10 1.02845e-12
2622 1 0.000635 -0.00977167 -0.000635 -0.014148 -1.44599e-16 -8.47033e-21 2.16e-11 0 6.33506e-35
2793 1 0.000635 -0.00757197 -0.000635 -0.014148 1.44604e-16 -1.19339e-17 2.16e-11 5.26426e-25 3.23218e-35
2964 1 0.000635 -0.00537226 -0.000635 -0.014148 1.44604e-16 -1.19365e-17 2.16e-11 0 3.23218e-35
3137 1 0.000635 -0.00317256 -0.000635 -0.014148 4.13183e-17 -8.47033e-21 2.16e-11 0 5.17148e-36
3310 1 0.000635 -0.000972852 -0.000635 -0.014148 0 -8.47033e-21 2.16e-11 0 0
3483 1 0.000635 0.00122685 -0.000635 -0.014148 0 -8.47033e-21 2.16e-11 0 0
3656 1 0.000635 0.00342656 -0.000635 -0.014148 3.09811e-17 -5.97078e-18 2.16e-11 5.26426e-25 3.23218e-36
3829 1 0.000635 0.00562626 -0.000635 -0.014148 -1.44597e-16 -1.19339e-17 2.16e-11 5.26426e-25 3.23218e-35
4000 1 0.000635 0.00782597 -0.000635 -0.014148 0 -8.47033e-21 2.16e-11 0 0
4171 1 0.000635 0.0100257 -0.000635 -0.014148 1.44599e-16 -8.47033e-21 2.16e-11 0 6.33506e-35
4341 1 0.000635 0.0122254 -0.000635 -0.014148 2.96752e-06 2.45582e-06 7.88249e-06 2.39913e-10 9.51124e-14
4426 1 0.000635 0.0132946 1.15914e-16 -0.01389 8.5856e-11 -1.11883e-14 -3.11479e-10 2.50852e-10 2.18142e-12
2453 1 0.000635 -0.0119714 0.000635 -0.014148 -7.86905e-06 -9.14514e-06 1.24803e-05 3.87593e-10 1.02845e-12
2537 1 0.000635 -0.0108715 0 -0.014148 -2.26329e-07 -1.70592e-18 -5.93132e-06 3.40465e-10 6.33506e-35
2623 1 0.000635 -0.00977167 0.000635 -0.014148 -1.44599e-16 -3.38813e-21 2.16e-11 0 6.33506e-35
2708 1 0.000635 -0.00867182 0 -0.014148 -8.26247e-17 5.92923e-21 2.16e-11 0 2.06859e-35
2794 1 0.000635 -0.00757197 0.000635 -0.014148 1.44602e-16 -3.38813e-21 2.16e-11 0 3.23218e-35
2879 1 0.000635 -0.00647211 0 -0.014148 -1.44605e-16 5.0822e-21 2.16e-11 0 3.23218e-35
2965 1 0.000635 -0.00537226 0.000635 -0.014148 1.44602e-16 -3.38813e-21 2.16e-11 0 3.23218e-35
3051 1 0.000635 -0.00427241 0 -0.014148 -1.03282e-16 5.92923e-21 2.16e-11 0 1.68073e-35
3138 1 0.000635 -0.00317256 0.000635 -0.014148 4.13149e-17 -3.38813e-21 2.16e-11 0 5.17148e-36
3224 1 0.000635 -0.0020727 0 -0.014148 0 6.77626e-21 2.16e-11 0 0
3311 1 0.000635 -0.000972852 0.000635 -0.014148 0 -3.38813e-21 2.16e-11 0 0
3397 1 0.000635 0.000127 0 -0.014148 0 6.77626e-21 2.16e-11 0 0
3484 1 0.000635 0.00122685 0.000635 -0.014148 0 -3.38813e-21 2.16e-11 0 0
3570 1 0.000635 0.0023267 0 -0.014148 -3.38813e-21 5.0822e-21 2.16e-11 5.26426e-25 0
3657 1 0.000635 0.00342656 0.000635 -0.014148 2.06574e-17 -3.38813e-21 2.16e-11 0 1.29287e-36
3743 1 0.000635 0.00452641 0 -0.014148 4.13132e-17 5.92923e-21 2.16e-11 0 1.29287e-35
3830 1 0.000635 0.00562626 0.000635 -0.014148 -1.44595e-16 -3.38813e-21 2.16e-11 0 3.23218e-35
3915 1 0.000635 0.00672611 0 -0.014148 8.26315e-17 5.92923e-21 2.16e-11 0 2.06859e-35
4001 1 0.000635 0.00782597 0.000635 -0.014148 0 -3.38813e-21 2.16e-11 0 0
4086 1 0.000635 0.00892582 0 -0.014148 -6.77626e-21 6.77626e-21 2.16e-11 0 0
4172 1 0.000635 0.0100257 0.000635 -0.014148 1.44599e-16 -3.38813e-21 2.16e-11 0 6.33506e-35
4257 1 0.000635 0.0111255 0 -0.014148 1.34113e-07 5.60566e-18 -4.5735e-06 2.0044e-10 6.33506e-35
4342 1 0.000635 0.0122254 0.000635 -0.014148 2.96752e-06 -2.45582e-06 7.88249e-06 2.39913e-10 9.51124e-14
2369 1 0.000635 -0.0130189 0.00126939 -0.0138118 -1.48742e-10 1.68351e-12 -4.34113e-10 3.97565e-10 1.88454e-11
2454 1 0.000635 -0.0119714 0.001905 -0.014148 1.90548e-06 -3.02421e-05 8.97886e-06 4.0154e-10 8.2975e-12
2538 1 0.000635 -0.0108715 0.00127 -0.014148 -2.26402e-07 1.02147e-08 -5.93444e-06 3.40832e-10 6.33506e-35
2624 1 0.000635 -0.00977167 0.001905 -0.014148 -1.44595e-16 1.19221e-17 2.16e-11 0 6.39971e-35
2709 1 0.000635 -0.00867182 0.00127 -0.014148 -8.26264e-17 0 2.16e-11 0 2.06859e-35
2795 1 0.000635 -0.00757197 0.001905 -0.014148 1.44604e-16 1.19221e-17 2.16e-11 0 3.29682e-35
2880 1 0.000635 -0.00647211 0.00127 -0.014148 -1.44605e-16 0 2.16e-11 0 3.23218e-35
2966 1 0.000635 -0.00537226 0.001905 -0.014148 1.44604e-16 1.19238e-17 2.16e-11 0 3.29682e-35
3052 1 0.000635 -0.00427241 0.00127 -0.014148 -1.0328e-16 0 2.16e-11 0 1.68073e-35
3139 1 0.000635 -0.00317256 0.001905 -0.014148 4.13115e-17 1.19229e-17 2.16e-11 0 5.81792e-36
3225 1 0.000635 -0.0020727 0.00127 -0.014148 0 0 2.16e-11 0 0
3312 1 0.000635 -0.000972852 0.001905 -0.014148 0 1.19212e-17 2.16e-11 0 6.46435e-37
3398 1 0.000635 0.000127 0.00127 -0.014148 0 0 2.16e-11 0 0
3485 1 0.000635 0.00122685 0.001905 -0.014148 0 1.19212e-17 2.16e-11 0 6.46435e-37
3571 1 0.000635 0.0023267 0.00127 -0.014148 -6.77626e-21 0 2.16e-11 0 0
3658 1 0.000635 0.00342656 0.001905 -0.014148 2.06591e-17 1.19221e-17 2.16e-11 0 1.93931e-36
3744 1 0.000635 0.00452641 0.00127 -0.014148 4.13115e-17 0 2.16e-11 0 1.29287e-35
3831 1 0.000635 0.00562626 0.001905 -0.014148 -1.44597e-16 1.19221e-17 2.16e-11 0 3.29682e-35
3916 1 0.000635 0.00672611 0.00127 -0.014148 8.26331e-17 0 2.16e-11 0 2.06859e-35
4002 1 0.000635 0.00782597 0.001905 -0.014148 -3.38813e-21 1.19221e-17 2.16e-11 0 6.46435e-37
4087 1 0.000635 0.00892582 0.00127 -0.014148 -6.77626e-21 0 2.16e-11 0 0
4173 1 0.000635 0.0100257 0.001905 -0.014148 1.44599e-16 1.19212e-17 2.16e-11 0 6.39971e-35
4258 1 0.000635 0.0111255 0.00127 -0.014148 1.3207e-07 4.93007e-09 -4.56051e-06 1.99275e-10 6.33506e-35
4343 1 0.000635 0.0122254 0.001905 -0.014148 1.33261e-05 -5.37474e-06 1.07823e-05 2.29735e-10 8.90998e-13
4427 1 0.000635 0.0132944 0.00126974 -0.0138887 1.46099e-11 2.47529e-12 -6.03264e-11 2.48206e-10 4.71993e-12
2370 1 0.000635 -0.0130189 0.00253867 -0.0138125 1.48391e-11 1.87943e-12 -6.91884e-13 4.11998e-10 3.88558e-11
2455 1 0.000635 -0.0119714 0.003175 -0.014148 3.09998e-05 -6.04817e-05 -1.11495e-06 4.10464e-10 3.62724e-11
2539 1 0.000635 -0.0108715 0.00254 -0.014148 -2.28892e-07 1.14166e-08 -5.97903e-06 3.4611e-10 6.33506e-35
2625 1 0.000635 -0.00977167 0.003175 -0.014148 -1.3427e-16 -4.1748e-17 2.16e-11 5.26426e-25 5.81792e-35
2710 1 0.000635 -0.00867182 0.00254 -0.014148 -7.2301e-17 5.97417e-18 2.16e-11 0 1.61609e-35
2796 1 0.000635 -0.00757197 0.003175 -0.014148 1.44602e-16 -4.77053e-17 2.16e-11 5.26426e-25 3.55539e-35
2881 1 0.000635 -0.00647211 0.00254 -0.014148 -1.44605e-16 1.19365e-17 2.16e-11 0 3.23218e-35
2967 1 0.000635 -0.00537226 0.003175 -0.014148 1.44604e-16 -4.7707e-17 2.16e-11 0 3.55539e-35
3053 1 0.000635 -0.00427241 0.00254 -0.014148 -1.03284e-16 1.19373e-17 2.16e-11 5.26426e-25 1.93931e-35
3140 1 0.000635 -0.00317256 0.003175 -0.014148 3.09963e-17 -4.17472e-17 2.16e-11 1.05285e-24 6.46435e-36
3226 1 0.000635 -0.0020727 0.00254 -0.014148 0 1.43996e-20 2.16e-11 0 0
3313 1 0.000635 -0.000972852 0.003175 -0.014148 0 -3.57823e-17 2.16e-11 1.05285e-24 3.23218e-36
3399 1 0.000635 0.000127 0.00254 -0.014148 0 1.35525e-20 2.16e-11 0 0
3486 1 0.000635 0.00122685 0.003175 -0.014148 0 -3.57823e-17 2.16e-11 1.05285e-24 3.23218e-36
3572 1 0.000635 0.0023267 0.00254 -0.014148 -6.77626e-21 1.35525e-20 2.16e-11 0 0
3659 1 0.000635 0.00342656 0.003175 -0.014148 3.09777e-17 -4.17463e-17 2.16e-11 1.05285e-24 6.46435e-36
3745 1 0.000635 0.00452641 0.00254 -0.014148 4.13115e-17 1.19382e-17 2.16e-11 5.26426e-25 1.93931e-35
3832 1 0.000635 0.00562626 0.003175 -0.014148 -1.44595e-16 -4.77053e-17 2.16e-11 5.26426e-25 3.55539e-35
3917 1 0.000635 0.00672611 0.00254 -0.014148 7.23095e-17 5.97502e-18 2.16e-11 0 1.61609e-35
4003 1 0.000635 0.00782597 0.003175 -0.014148 0 -3.57823e-17 2.16e-11 1.05285e-24 3.23218e-36
4088 1 0.000635 0.00892582 0.00254 -0.014148 -8.47033e-21 1.27055e-20 2.16e-11 0 0
4174 1 0.000635 0.0100257 0.003175 -0.014148 1.3427e-16 -4.1748e-17 2.16e-11 5.26426e-25 5.81792e-35
4259 1 0.000635 0.0111255 0.00254 -0.014148 1.17855e-07 3.48738e-08 -4.39777e-06 1.85399e-10 6.33506e-35
4344 1 0.000635 0.0122254 0.003175 -0.014148 5.37906e-05 -8.34141e-06 1.88007e-05 2.35228e-10 1.00189e-11
4428 1 0.000635 0.0132947 0.00253932 -0.0138889 -5.71507e-11 1.28665e-12 2.12319e-10 2.58272e-10 2.20627e-11
2371 1 0.000635 -0.0130166 0.00380755 -0.0138066 -5.19257e-11 8.6827e-13 -1.6205e-10 4.27977e-10 1.31268e-10
2456 1 0.000635 -0.0119714 0.004445 -0.014148 -0.000163685 0.000116774 6.18445e-05 3.7097e-10 1.3147e-10
2540 1 0.000635 -0.0108715 0.00381 -0.014148 -1.82776e-07 1.00057e-07 -5.66241e-06 3.10055e-10 4.65433e-35
2626 1 0.000635 -0.00977167 0.004445 -0.014148 -3.90354e-09 -6.76113e-09 -4.08724e-07 3.15949e-12 6.01185e-35
2711 1 0.000635 -0.00867182 0.00381 -0.014148 -8.2623e-17 0 2.16e-11 1.05285e-24 2.06859e-35
2797 1 0.000635 -0.00757197 0.004445 -0.014148 1.44602e-16 5.96282e-17 2.16e-11 5.26426e-25 3.74932e-35
2882 1 0.000635 -0.00647211 0.00381 -0.014148 -1.44605e-16 0 2.16e-11 0 3.23218e-35