ITEM: TIMESTEP
270000
ITEM: NUMBER OF ATOMS
6793
ITEM: BOX BOUNDS ff ff ff
-8.9999999999999997e-02 8.9999999999999997e-02
-8.9999999999999997e-02 8.9999999999999997e-02
-4.0000000000000001e-02 4.0000000000000001e-02
ITEM: ATOMS id type radius x y z fx fy fz c_bendingE c_stretchingE
3469 1 0.000635 0.00122182 -0.0183972 -0.00244509 3.78072e-10 -2.51793e-10 5.45733e-09 5.60433e-11 1.37876e-11
3555 1 0.000635 0.00232 -0.0190302 -0.00236897 2.87582e-10 -5.35542e-10 4.54863e-09 2.36726e-11 1.28184e-11
3642 1 0.000635 0.00342028 -0.0183972 -0.00240471 3.74243e-10 -7.43138e-10 2.47818e-09 5.94982e-12 1.25484e-11
3297 1 0.000635 -0.000961883 -0.0171063 -0.00239233 -2.42217e-10 -8.47002e-10 -9.17908e-10 8.63816e-11 3.48219e-11
3383 1 0.000635 0.000125164 -0.0177578 -0.00246472 5.59528e-10 -1.2031e-10 4.83788e-09 7.32204e-11 8.26666e-12
3470 1 0.000635 0.00122436 -0.0171354 -0.00259522 3.14579e-10 -7.02864e-10 3.87162e-10 5.94645e-11 2.00325e-11
3556 1 0.000635 0.00232253 -0.0177672 -0.00250883 4.16503e-10 -8.91009e-10 -1.0682e-11 2.22787e-11 1.83459e-11
3643 1 0.000635 0.00342216 -0.0171326 -0.00252822 9.42366e-11 4.71818e-11 9.30739e-09 3.89912e-12 1.57042e-11
3729 1 0.000635 0.00451997 -0.0177627 -0.0024237 5.32478e-10 -1.04857e-09 -1.16376e-09 8.25509e-13 1.0846e-11
3816 1 0.000635 0.00561984 -0.0171287 -0.00244649 5.9767e-10 -1.2453e-09 -4.07731e-09 7.15573e-13 9.85617e-12
3901 1 0.000635 0.00671802 -0.0177595 -0.00234927 5.9358e-10 -1.11355e-09 -1.7914e-09 3.31978e-12 8.37428e-12
3987 1 0.000635 0.00781783 -0.0171253 -0.00236924 5.07263e-10 -7.65438e-10 8.44821e-10 1.38338e-11 7.76372e-12
3384 1 0.000635 0.00012618 -0.0164995 -0.00263847 2.77392e-10 -2.75975e-10 3.01177e-09 7.88597e-11 1.02729e-11
3557 1 0.000635 0.00232439 -0.0165022 -0.00263128 8.85934e-11 1.23942e-10 8.90116e-09 1.70997e-11 2.27724e-11
3730 1 0.000635 0.00452165 -0.0164977 -0.00254199 2.70919e-10 -3.73933e-10 4.36146e-09 5.00121e-13 1.25257e-11
3902 1 0.000635 0.00671993 -0.0164953 -0.00247516 4.80902e-10 -8.5382e-10 -7.36585e-10 5.04168e-12 9.85874e-12
4073 1 0.000635 0.00891575 -0.0164878 -0.00235423 8.7999e-10 -1.16858e-09 -4.16228e-09 2.98352e-11 4.54215e-12
3212 1 0.000635 -0.00206155 -0.0152138 -0.00257646 -2.75082e-10 -6.33194e-10 -1.44736e-09 9.12642e-11 4.22499e-11
3298 1 0.000635 -0.000968856 -0.0158575 -0.00261913 -3.62461e-10 -9.09562e-10 -2.25043e-09 9.376e-11 3.13812e-11
3385 1 0.000635 0.000127084 -0.0152368 -0.00277897 1.81714e-10 -1.38452e-11 4.53898e-09 8.46691e-11 9.62243e-12
3471 1 0.000635 0.00122613 -0.0158707 -0.00272054 2.58462e-10 -3.03391e-10 2.63111e-09 5.37974e-11 2.22179e-11
3558 1 0.000635 0.00232557 -0.0152358 -0.00273696 7.6632e-11 7.21865e-11 6.68091e-09 8.84767e-12 2.56317e-11
3731 1 0.000635 0.00452311 -0.015232 -0.00265346 2.45431e-10 -3.68496e-10 2.33799e-09 5.93251e-13 1.32856e-11
3644 1 0.000635 0.00342363 -0.0158668 -0.00264068 1.57473e-10 -1.05157e-10 5.8747e-09 2.01592e-12 1.80701e-11
3817 1 0.000635 0.00562153 -0.0158637 -0.0025649 4.67462e-10 -1.00768e-09 -3.27358e-09 1.05066e-12 1.06697e-11
3903 1 0.000635 0.00672165 -0.0152305 -0.00259413 4.52531e-10 -9.77773e-10 -3.48552e-09 6.83723e-12 1.02283e-11
3988 1 0.000635 0.00781972 -0.0158612 -0.00249451 6.11198e-10 -1.18381e-09 -4.42252e-09 2.06356e-11 9.18644e-12
4074 1 0.000635 0.00891719 -0.0152232 -0.00247159 -8.58413e-11 -4.11742e-10 2.81028e-09 3.86548e-11 4.6573e-12
3040 1 0.000635 -0.00425741 -0.0139412 -0.0025592 7.51571e-10 1.08321e-09 5.92178e-09 6.00527e-11 1.96594e-11
3126 1 0.000635 -0.00315812 -0.0145755 -0.00255915 1.95212e-11 -1.47172e-10 1.81648e-10 7.49603e-11 3.35601e-11
3213 1 0.000635 -0.00207121 -0.0139646 -0.00280193 1.60037e-10 -6.48443e-11 6.38943e-10 9.59987e-11 8.48656e-12
3299 1 0.000635 -0.000972205 -0.014601 -0.00280113 1.89595e-10 -5.24733e-11 2.29056e-09 8.60475e-11 2.66484e-12
3386 1 0.000635 0.000127351 -0.0139695 -0.00286845 1.14219e-10 -2.36817e-10 -1.00816e-09 5.26278e-11 9.2449e-12
3472 1 0.000635 0.0012269 -0.0146035 -0.00281672 1.78206e-10 -2.26484e-10 1.76073e-09 2.99515e-11 1.70007e-11
3559 1 0.000635 0.00232637 -0.0139683 -0.0028315 1.49194e-10 -1.35695e-10 1.36339e-09 1.40982e-11 3.348e-11
3732 1 0.000635 0.00452441 -0.0139657 -0.00275819 2.31593e-10 -5.06163e-10 -1.57233e-09 1.72668e-12 1.2553e-11
3645 1 0.000635 0.00342482 -0.0146004 -0.00274523 -2.69396e-11 2.43736e-10 8.3095e-09 2.61138e-12 1.98591e-11
3818 1 0.000635 0.00562306 -0.0145981 -0.0026764 3.55233e-10 -8.32729e-10 -3.5037e-09 1.47635e-12 9.88145e-12
3904 1 0.000635 0.0067232 -0.0139647 -0.00270377 1.65245e-10 -4.05049e-10 8.35618e-10 8.05611e-12 8.54672e-12
3989 1 0.000635 0.00782145 -0.0145962 -0.00261214 2.97761e-10 -6.85759e-10 -1.44569e-09 2.69936e-11 9.25671e-12
4075 1 0.000635 0.00891872 -0.0139581 -0.00258363 5.98156e-11 -3.32153e-10 1.57074e-09 4.4524e-11 3.73418e-12
4160 1 0.000635 0.0100051 -0.0145778 -0.00236225 -1.25434e-09 1.34598e-10 9.22239e-09 3.99411e-11 1.21243e-11
2869 1 0.000635 -0.00645687 -0.0126728 -0.00256189 -7.85529e-10 -1.55245e-09 -4.20286e-09 5.01097e-11 5.06983e-12
2954 1 0.000635 -0.00535721 -0.0133073 -0.00256122 1.68911e-10 -1.42346e-11 2.54684e-09 5.39186e-11 9.49099e-12
3041 1 0.000635 -0.00426965 -0.0126938 -0.00279468 1.55311e-12 5.97276e-11 9.7514e-10 9.76857e-11 1.05207e-11
3127 1 0.000635 -0.00317026 -0.0133289 -0.00279821 -2.09014e-10 -5.21884e-10 -3.17368e-09 1.01602e-10 1.82568e-11
3214 1 0.000635 -0.0020727 -0.0127 -0.002916 -1.0476e-05 -2.94919e-06 3.26333e-06 8.11603e-11 4.48163e-12
3300 1 0.000635 -0.000972642 -0.0133348 -0.00289868 -8.90177e-12 -3.48937e-10 -4.58764e-09 6.37342e-11 2.65628e-12
3387 1 0.000635 0.000127 -0.0127 -0.002916 2.58509e-05 -3.02001e-05 1.61849e-06 1.793e-11 4.89437e-12
3473 1 0.000635 0.001227 -0.0133349 -0.00288684 6.72571e-12 1.15641e-10 6.32338e-09 1.33433e-11 8.86926e-12
3560 1 0.000635 0.0023267 -0.0127 -0.002916 2.32605e-05 -8.54487e-05 9.72433e-06 2.02621e-11 2.45269e-11
3646 1 0.000635 0.00342575 -0.0133334 -0.00284192 -3.30359e-11 1.35986e-10 4.75043e-09 1.71567e-11 2.15389e-11
3733 1 0.000635 0.00452561 -0.0126987 -0.00285141 1.04889e-10 -2.86345e-10 -1.52719e-09 1.37926e-11 7.2517e-12
3819 1 0.000635 0.00562445 -0.0133318 -0.0027781 9.25569e-11 -2.41383e-10 1.47943e-09 2.75954e-12 6.80655e-12
3905 1 0.000635 0.00672456 -0.0126979 -0.00279987 7.24655e-11 -2.55316e-10 7.02161e-10 9.37915e-12 5.97188e-12
3990 1 0.000635 0.00782304 -0.0133303 -0.00271959 6.79031e-11 -2.88309e-10 1.44883e-09 3.03069e-11 7.56192e-12
4076 1 0.000635 0.00892077 -0.0126927 -0.00269218 -2.24725e-11 -1.68961e-10 2.08235e-09 4.93028e-11 2.00201e-12
4161 1 0.000635 0.0100051 -0.0133124 -0.00246218 5.19586e-10 -5.36424e-10 -7.00909e-10 4.79309e-11 1.9031e-11
2699 1 0.000635 -0.00865593 -0.0114032 -0.00256339 3.21144e-10 3.34772e-10 2.71441e-09 5.38328e-11 6.00428e-12
2784 1 0.000635 -0.00755646 -0.0120381 -0.00256254 1.22493e-10 1.86407e-10 2.54752e-09 5.00305e-11 4.12024e-12
2870 1 0.000635 -0.00646859 -0.0114237 -0.00279056 5.52856e-10 7.25349e-10 7.36648e-09 9.20575e-11 2.81942e-12
2955 1 0.000635 -0.00536906 -0.0120586 -0.00279159 4.1861e-10 7.28395e-10 7.14731e-09 9.36877e-11 5.03587e-12
3042 1 0.000635 -0.00427241 -0.01143 -0.002916 -7.96035e-06 1.90087e-05 1.0175e-06 8.09404e-11 2.91763e-12
3128 1 0.000635 -0.00317256 -0.012065 -0.002916 -1.46385e-05 2.54882e-05 4.43375e-07 8.3776e-11 6.53443e-12
3215 1 0.000635 -0.0020727 -0.01143 -0.002916 4.59972e-09 -3.07664e-08 -2.07601e-06 4.08773e-11 5.17148e-36
3301 1 0.000635 -0.000972852 -0.012065 -0.002916 1.88721e-08 1.81122e-06 -1.72318e-06 3.16203e-11 1.55897e-14
3388 1 0.000635 0.000127 -0.01143 -0.002916 -3.0922e-09 1.69407e-21 -4.19184e-07 3.32229e-12 5.17148e-36
3474 1 0.000635 0.00122685 -0.012065 -0.002916 1.68756e-09 -1.21509e-05 -3.73903e-07 1.22231e-11 6.70412e-13
3561 1 0.000635 0.0023267 -0.01143 -0.002916 -1.37655e-10 -5.34434e-09 -1.31402e-06 1.66214e-11 5.17148e-36
3647 1 0.000635 0.00342656 -0.012065 -0.002916 1.51333e-05 -3.71752e-05 4.46418e-06 1.63165e-11 5.09635e-12
3734 1 0.000635 0.00452641 -0.01143 -0.002916 7.20332e-06 -2.47465e-05 3.13968e-06 1.16512e-11 2.25151e-12
3820 1 0.000635 0.00562559 -0.0120642 -0.00286272 3.27243e-11 -1.40524e-10 4.67289e-10 1.08271e-11 4.21351e-12
3906 1 0.000635 0.00672558 -0.0114297 -0.00287482 5.5398e-11 -1.73553e-10 -9.07493e-10 1.35222e-11 4.12145e-12
3991 1 0.000635 0.00782448 -0.0120633 -0.00281323 8.34801e-11 -2.73179e-10 -5.24095e-10 3.39401e-11 5.57124e-12
4077 1 0.000635 0.0089233 -0.0114268 -0.00279499 -1.52542e-10 -1.15494e-11 2.6895e-09 5.89606e-11 1.1423e-12
4162 1 0.000635 0.0100097 -0.0120489 -0.00258245 3.06452e-10 -3.54313e-10 -5.31865e-10 5.64224e-11 1.90249e-11
4248 1 0.000635 0.0110876 -0.0113998 -0.00241348 -8.74785e-10 2.96787e-10 3.63904e-09 4.33005e-11 2.21593e-11
2614 1 0.000635 -0.00975514 -0.010768 -0.00256344 9.96289e-11 -9.16595e-11 7.24164e-10 6.05283e-11 1.22021e-11
2785 1 0.000635 -0.00756824 -0.010789 -0.00279183 -3.10851e-10 -7.33146e-10 -4.33075e-09 9.30959e-11 3.34448e-12
2956 1 0.000635 -0.00537226 -0.010795 -0.002916 -8.63923e-07 1.28799e-05 1.33164e-06 7.886e-11 8.20735e-13
3129 1 0.000635 -0.00317256 -0.010795 -0.002916 -3.01248e-09 -2.98352e-08 -2.13634e-06 4.32857e-11 6.46435e-36
3302 1 0.000635 -0.000972852 -0.010795 -0.002916 -1.85632e-09 -1.69407e-21 -1.52747e-07 4.41124e-13 5.17148e-36
3475 1 0.000635 0.00122685 -0.010795 -0.002916 -1.26841e-09 -3.38813e-21 -2.57099e-07 1.24954e-12 5.17148e-36
3648 1 0.000635 0.00342656 -0.010795 -0.002916 5.61139e-09 -2.56814e-09 -1.12286e-06 1.22406e-11 1.0343e-35
3821 1 0.000635 0.00562626 -0.010795 -0.002916 2.12436e-06 -2.01253e-05 2.08234e-06 8.72745e-12 1.65304e-12
3992 1 0.000635 0.00782551 -0.0107949 -0.002884 4.61807e-11 -7.02033e-11 8.88766e-11 3.58316e-11 4.0983e-12
4163 1 0.000635 0.0100173 -0.0107867 -0.00271617 6.24432e-10 -5.61861e-10 -4.94098e-09 6.7678e-11 1.03479e-11
2445 1 0.000635 -0.0119531 -0.00949836 -0.00256565 2.32453e-10 -1.9353e-10 1.45633e-09 9.5212e-11 4.48824e-11
2529 1 0.000635 -0.010854 -0.0101326 -0.00256237 -6.07094e-11 -6.72799e-10 -1.22256e-09 7.50057e-11 2.53208e-11
2615 1 0.000635 -0.00976781 -0.00952009 -0.00280049 -2.42508e-10 -6.56409e-10 -3.47766e-09 1.0224e-10 1.40044e-11
2700 1 0.000635 -0.008668 -0.0101545 -0.00279535 6.92971e-11 -4.90541e-11 4.63181e-10 9.67939e-11 6.8454e-12
2786 1 0.000635 -0.00757197 -0.009525 -0.002916 1.55165e-05 5.20755e-06 1.04854e-06 7.9558e-11 1.52589e-12
2871 1 0.000635 -0.00647211 -0.01016 -0.002916 6.83085e-06 8.33719e-06 1.34381e-06 7.84336e-11 3.73804e-13
2957 1 0.000635 -0.00537226 -0.009525 -0.002916 -1.34031e-08 -2.56292e-08 -2.1926e-06 4.5567e-11 3.74932e-35
3043 1 0.000635 -0.00427241 -0.01016 -0.002916 -8.02507e-09 -2.81962e-08 -2.17666e-06 4.49179e-11 2.71503e-35
3130 1 0.000635 -0.00317256 -0.009525 -0.002916 2.0671e-17 0 2.16e-11 1.05285e-24 6.46435e-36
3216 1 0.000635 -0.0020727 -0.01016 -0.002916 -6.77626e-21 0 2.16e-11 0 5.17148e-36
3303 1 0.000635 -0.000972852 -0.009525 -0.002916 0 0 2.16e-11 0 5.17148e-36
3389 1 0.000635 0.000127 -0.01016 -0.002916 0 0 2.16e-11 0 5.17148e-36
3476 1 0.000635 0.00122685 -0.009525 -0.002916 0 0 2.16e-11 0 5.17148e-36
3562 1 0.000635 0.0023267 -0.01016 -0.002916 0 0 2.16e-11 0 5.17148e-36
3649 1 0.000635 0.00342656 -0.009525 -0.002916 4.13115e-17 0 2.16e-11 0 1.0343e-35
3735 1 0.000635 0.00452641 -0.01016 -0.002916 6.99256e-09 -5.60418e-11 -9.3264e-07 8.62666e-12 3.10289e-35
3822 1 0.000635 0.00562626 -0.009525 -0.002916 6.39986e-09 8.78274e-10 -7.52004e-07 5.67869e-12 3.74932e-35
3907 1 0.000635 0.00672611 -0.01016 -0.002916 -2.75087e-06 -1.76816e-05 1.03413e-06 1.04713e-11 1.73074e-12
3993 1 0.000635 0.00782597 -0.009525 -0.002916 -9.25961e-06 -9.66504e-06 -1.44999e-07 2.85637e-11 1.54108e-12
4078 1 0.000635 0.00892526 -0.0101594 -0.00287803 4.89014e-10 -4.95306e-10 -7.65214e-09 6.68487e-11 2.59263e-12
4164 1 0.000635 0.0100235 -0.00952268 -0.00283591 2.86227e-10 -3.45674e-10 -3.83655e-09 8.30282e-11 7.17404e-12
4249 1 0.000635 0.0111036 -0.0101424 -0.00258616 -6.96941e-10 2.32008e-10 2.80823e-09 6.26922e-11 1.87613e-11
4334 1 0.000635 0.0121869 -0.00949655 -0.00244215 -1.58912e-09 9.13708e-10 7.59114e-09 3.1038e-11 1.81399e-11
2111 1 0.000635 -0.0163525 -0.008253 -0.00248259 2.31768e-10 -4.26985e-10 -1.80098e-10 9.1179e-11 1.22244e-11
2193 1 0.000635 -0.0152473 -0.00887717 -0.00246502 4.62238e-10 6.13902e-10 5.45447e-09 1.1621e-10 2.69281e-11
2277 1 0.000635 -0.0141603 -0.0082489 -0.00265084 3.09303e-12 -9.77408e-10 -2.44512e-09 1.17768e-10 2.9103e-11
2361 1 0.000635 -0.0130558 -0.00887169 -0.00259978 -1.26958e-10 -1.03574e-09 -3.05672e-09 1.26173e-10 5.13255e-11
2446 1 0.000635 -0.0119682 -0.00825228 -0.00281128 3.61423e-10 2.81282e-11 3.25035e-09 1.00507e-10 8.20144e-12
2530 1 0.000635 -0.0108678 -0.00888609 -0.00280712 3.35697e-10 1.79658e-10 3.29749e-09 1.03553e-10 1.49405e-11
2616 1 0.000635 -0.00977167 -0.008255 -0.002916 2.19205e-05 -4.89942e-06 1.20623e-06 8.62429e-11 5.14973e-12
2701 1 0.000635 -0.00867182 -0.00889 -0.002916 2.52184e-05 2.96658e-06 4.45555e-07 8.26407e-11 4.46706e-12
2787 1 0.000635 -0.00757197 -0.008255 -0.002916 -2.25551e-08 -1.77695e-08 -2.11413e-06 4.24109e-11 4.0079e-35
2872 1 0.000635 -0.00647211 -0.00889 -0.002916 -1.83215e-08 -2.20707e-08 -2.17073e-06 4.46772e-11 3.74932e-35
2958 1 0.000635 -0.00537226 -0.008255 -0.002916 1.44607e-16 -7.15799e-17 2.16e-11 5.26426e-25 4.0079e-35
3044 1 0.000635 -0.00427241 -0.00889 -0.002916 -1.03289e-16 -4.76841e-17 2.16e-11 1.05285e-24 2.71503e-35
3131 1 0.000635 -0.00317256 -0.008255 -0.002916 3.09912e-17 -7.75431e-17 2.16e-11 5.26426e-25 1.87466e-35
3217 1 0.000635 -0.0020727 -0.00889 -0.002916 -3.38813e-21 -4.76866e-17 2.16e-11 0 5.17148e-36
3304 1 0.000635 -0.000972852 -0.008255 -0.002916 0 -7.15833e-17 2.16e-11 0 1.0343e-35
3390 1 0.000635 0.000127 -0.00889 -0.002916 0 -4.76866e-17 2.16e-11 0 5.17148e-36
3477 1 0.000635 0.00122685 -0.008255 -0.002916 0 -7.15833e-17 2.16e-11 0 1.0343e-35
3563 1 0.000635 0.0023267 -0.00889 -0.002916 0 -4.76858e-17 2.16e-11 0 5.17148e-36
3650 1 0.000635 0.00342656 -0.008255 -0.002916 4.13098e-17 -7.15825e-17 2.16e-11 0 1.0343e-35
3736 1 0.000635 0.00452641 -0.00889 -0.002916 4.13115e-17 -4.76841e-17 2.16e-11 0 3.10289e-35
3823 1 0.000635 0.00562626 -0.008255 -0.002916 -1.446e-16 -7.15791e-17 2.16e-11 0 4.0079e-35
3908 1 0.000635 0.00672611 -0.00889 -0.002916 3.81693e-09 -1.56873e-09 -6.97975e-07 4.6126e-12 1.68073e-35
3994 1 0.000635 0.00782597 -0.008255 -0.002916 -1.45042e-10 -7.22294e-09 -9.8874e-07 1.09507e-11 1.0343e-35
4079 1 0.000635 0.00892582 -0.00889 -0.002916 -2.26942e-05 1.25867e-05 -1.90648e-06 6.1293e-11 3.1464e-12
4165 1 0.000635 0.0100257 -0.008255 -0.002916 2.32067e-05 -5.9122e-06 6.19272e-06 8.55805e-11 2.4985e-12
4250 1 0.000635 0.0111162 -0.00888271 -0.00274268 -8.62631e-10 4.46912e-10 4.80129e-09 8.6563e-11 1.08356e-11
4335 1 0.000635 0.0122068 -0.00824181 -0.00263427 -4.25165e-10 8.06977e-11 1.67119e-09 7.26703e-11 1.3202e-11
2029 1 0.000635 -0.0174496 -0.00761946 -0.00239802 1.07788e-09 -8.65384e-11 6.17861e-09 4.54822e-11 1.46245e-11
2112 1 0.000635 -0.016358 -0.00698423 -0.00253847 6.55116e-10 -2.92771e-10 2.63776e-09 4.54454e-11 1.84877e-11
2194 1 0.000635 -0.0152621 -0.00761856 -0.00263364 2.10815e-10 -4.23253e-10 -8.80052e-10 8.96874e-11 1.61689e-11
2278 1 0.000635 -0.0141683 -0.00698395 -0.0027584 8.32248e-10 -2.78612e-10 6.35592e-09 1.05047e-10 1.85461e-11
2362 1 0.000635 -0.0130687 -0.00761841 -0.00280368 -1.73495e-10 -9.71492e-10 -5.31616e-09 9.48756e-11 4.3202e-12
2447 1 0.000635 -0.0119714 -0.00698462 -0.00288702 1.21687e-10 -1.38015e-10 2.13575e-09 6.59367e-11 5.21392e-12
2531 1 0.000635 -0.0108714 -0.00761985 -0.00290693 1.20282e-10 5.90894e-11 2.03024e-09 7.62608e-11 4.35965e-12
2617 1 0.000635 -0.00977167 -0.006985 -0.002916 5.18617e-06 3.00905e-06 -1.83079e-06 3.13448e-11 1.65341e-13
2702 1 0.000635 -0.00867182 -0.00762 -0.002916 -2.69262e-08 -1.16557e-08 -2.02449e-06 3.89337e-11 2.9736e-35
2788 1 0.000635 -0.00757197 -0.006985 -0.002916 1.44605e-16 -2.38958e-17 2.16e-11 0 4.0079e-35
2873 1 0.000635 -0.00647211 -0.00762 -0.002916 -1.44609e-16 2.38967e-17 2.16e-11 0 4.0079e-35
2959 1 0.000635 -0.00537226 -0.006985 -0.002916 1.44605e-16 -2.38958e-17 2.16e-11 0 4.0079e-35
3045 1 0.000635 -0.00427241 -0.00762 -0.002916 -1.13623e-16 2.98573e-17 2.16e-11 0 2.90896e-35
3132 1 0.000635 -0.00317256 -0.006985 -0.002916 3.09912e-17 -2.98573e-17 2.16e-11 0 1.87466e-35
3218 1 0.000635 -0.0020727 -0.00762 -0.002916 -1.69407e-21 2.38958e-17 2.16e-11 0 1.0343e-35
3305 1 0.000635 -0.000972852 -0.006985 -0.002916 0 -2.38967e-17 2.16e-11 0 1.0343e-35
3391 1 0.000635 0.000127 -0.00762 -0.002916 0 2.38967e-17 2.16e-11 0 1.0343e-35
3478 1 0.000635 0.00122685 -0.006985 -0.002916 0 -2.38967e-17 2.16e-11 0 1.0343e-35
3564 1 0.000635 0.0023267 -0.00762 -0.002916 0 2.38967e-17 2.16e-11 0 1.0343e-35
3651 1 0.000635 0.00342656 -0.006985 -0.002916 4.13081e-17 -2.38967e-17 2.16e-11 0 1.0343e-35
3737 1 0.000635 0.00452641 -0.00762 -0.002916 4.13217e-17 2.38958e-17 2.16e-11 0 2.06859e-35
3824 1 0.000635 0.00562626 -0.006985 -0.002916 -1.44599e-16 -2.3895e-17 2.16e-11 0 4.0079e-35
3909 1 0.000635 0.00672611 -0.00762 -0.002916 6.19757e-17 2.38958e-17 2.16e-11 0 2.9736e-35
3995 1 0.000635 0.00782597 -0.006985 -0.002916 -6.77626e-21 -2.38967e-17 2.16e-11 0 1.0343e-35
4080 1 0.000635 0.00892582 -0.00762 -0.002916 -2.31283e-09 -1.25209e-08 -1.86324e-06 4.6478e-11 1.0343e-35
4166 1 0.000635 0.0100257 -0.006985 -0.002916 -2.39813e-05 1.38335e-05 -2.8337e-06 6.39228e-11 3.50677e-12
4251 1 0.000635 0.0111243 -0.00761915 -0.00286583 1.47061e-10 -1.46415e-10 -2.10097e-09 8.5754e-11 8.69029e-12
4336 1 0.000635 0.0122196 -0.00698153 -0.00278871 1.07996e-10 -1.95535e-10 -9.05526e-10 7.8269e-11 8.21678e-12
4420 1 0.000635 0.0132946 -0.00759907 -0.00251255 7.9904e-10 -8.5944e-10 -4.41288e-09 4.82814e-11 1.76758e-11
4505 1 0.000635 0.0143815 -0.00695571 -0.00238819 -3.20477e-10 -5.54392e-11 8.95471e-10 3.64094e-11 2.04363e-11
2030 1 0.000635 -0.0174499 -0.00634947 -0.00240632 3.89667e-11 -1.71261e-10 -3.3198e-09 1.13196e-11 1.08173e-11
2113 1 0.000635 -0.0163564 -0.00571436 -0.00253076 1.31986e-09 -3.27429e-10 7.84481e-09 8.61156e-12 1.16286e-11
2195 1 0.000635 -0.0152639 -0.00634909 -0.00265985 8.26318e-10 -3.05753e-10 4.86601e-09 4.05533e-11 2.01894e-11
2279 1 0.000635 -0.0141676 -0.00571427 -0.002759 4.0434e-10 -3.03239e-10 7.94449e-10 2.30246e-11 1.80768e-11
2363 1 0.000635 -0.0130707 -0.00634941 -0.00284329 -5.34158e-11 -4.77575e-10 -4.36509e-09 5.30515e-11 1.33854e-11
2448 1 0.000635 -0.0119715 -0.00571487 -0.00289727 4.5756e-11 -1.4361e-10 -1.10909e-09 1.60901e-11 4.63041e-12
2532 1 0.000635 -0.0108715 -0.00635 -0.002916 -2.04383e-05 1.14535e-05 -2.37219e-07 2.02337e-11 1.68349e-12
2618 1 0.000635 -0.00977167 -0.005715 -0.002916 1.40942e-09 -2.44119e-09 -2.55566e-07 1.2348e-12 6.85221e-35
2703 1 0.000635 -0.00867182 -0.00635 -0.002916 3.84876e-10 -6.66625e-10 -7.9956e-08 1.2089e-13 2.9736e-35
2789 1 0.000635 -0.00757197 -0.005715 -0.002916 1.44602e-16 4.76832e-17 2.16e-11 0 3.74932e-35
2874 1 0.000635 -0.00647211 -0.00635 -0.002916 -1.44609e-16 7.15816e-17 2.16e-11 0 4.0079e-35
2960 1 0.000635 -0.00537226 -0.005715 -0.002916 1.44604e-16 4.76841e-17 2.16e-11 5.26426e-25 3.74932e-35
3046 1 0.000635 -0.00427241 -0.00635 -0.002916 -1.13621e-16 7.75431e-17 2.16e-11 0 2.90896e-35
3133 1 0.000635 -0.00317256 -0.005715 -0.002916 2.0671e-17 4.76858e-17 2.16e-11 5.26426e-25 6.46435e-36
3219 1 0.000635 -0.0020727 -0.00635 -0.002916 -5.0822e-21 7.15842e-17 2.16e-11 0 1.0343e-35
3306 1 0.000635 -0.000972852 -0.005715 -0.002916 0 4.76866e-17 2.16e-11 0 5.17148e-36
3392 1 0.000635 0.000127 -0.00635 -0.002916 0 7.1585e-17 2.16e-11 0 1.0343e-35
3479 1 0.000635 0.00122685 -0.005715 -0.002916 0 4.76866e-17 2.16e-11 0 5.17148e-36
3565 1 0.000635 0.0023267 -0.00635 -0.002916 0 7.15842e-17 2.16e-11 0 1.0343e-35
3652 1 0.000635 0.00342656 -0.005715 -0.002916 4.13098e-17 4.76858e-17 2.16e-11 0 1.0343e-35
3738 1 0.000635 0.00452641 -0.00635 -0.002916 4.13183e-17 7.15816e-17 2.16e-11 0 2.06859e-35
3825 1 0.000635 0.00562626 -0.005715 -0.002916 -1.44597e-16 4.76841e-17 2.16e-11 0 3.74932e-35
3910 1 0.000635 0.00672611 -0.00635 -0.002916 6.19774e-17 7.15825e-17 2.16e-11 0 2.9736e-35
3996 1 0.000635 0.00782597 -0.005715 -0.002916 -6.77626e-21 4.76849e-17 2.16e-11 0 5.17148e-36
4081 1 0.000635 0.00892582 -0.00635 -0.002916 -5.02599e-10 -8.70526e-10 -4.42613e-07 3.70399e-12 1.0343e-35
4167 1 0.000635 0.0100257 -0.005715 -0.002916 -5.96973e-10 -1.03399e-09 -1.12291e-06 2.38895e-11 6.85221e-35
4252 1 0.000635 0.0111255 -0.00635 -0.002916 -1.7594e-05 -1.73533e-06 7.6033e-08 7.19812e-11 1.59962e-12
4337 1 0.000635 0.0122246 -0.00571474 -0.00288081 9.89116e-11 -1.18231e-10 -1.21179e-09 7.34199e-11 3.6962e-12
4421 1 0.000635 0.0133125 -0.00634261 -0.00269508 8.70728e-11 -2.27739e-10 -9.4871e-10 7.29181e-11 1.65422e-11
4506 1 0.000635 0.0144053 -0.00570414 -0.00260063 1.31473e-10 -3.59213e-10 -7.68917e-10 5.49152e-11 2.32532e-11
2031 1 0.000635 -0.0174473 -0.00507962 -0.00238926 3.02507e-10 -1.44702e-10 -1.86206e-09 1.52859e-12 5.99376e-12
2196 1 0.000635 -0.0152615 -0.00507941 -0.00264204 1.75986e-10 -2.12246e-10 -2.03704e-09 5.45502e-12 1.12809e-11
2364 1 0.000635 -0.0130699 -0.00507959 -0.00284289 3.97722e-10 -2.76921e-10 2.85822e-09 1.63663e-11 1.7034e-11
2533 1 0.000635 -0.0108715 -0.00508 -0.002916 -8.49213e-06 -4.90304e-06 -6.03067e-07 1.13986e-11 4.36129e-13
2704 1 0.000635 -0.00867182 -0.00508 -0.002916 -6.19774e-17 -2.3845e-17 2.16e-11 0 1.42216e-35
2875 1 0.000635 -0.00647211 -0.00508 -0.002916 -1.44605e-16 -2.38442e-17 2.16e-11 0 3.49075e-35
3047 1 0.000635 -0.00427241 -0.00508 -0.002916 -1.03287e-16 -2.38433e-17 2.16e-11 1.57928e-24 2.45645e-35
3220 1 0.000635 -0.0020727 -0.00508 -0.002916 -3.38813e-21 -2.38442e-17 2.16e-11 0 2.58574e-36
3393 1 0.000635 0.000127 -0.00508 -0.002916 0 -2.38442e-17 2.16e-11 0 2.58574e-36
3566 1 0.000635 0.0023267 -0.00508 -0.002916 -3.38813e-21 -2.38459e-17 2.16e-11 0 2.58574e-36
3739 1 0.000635 0.00452641 -0.00508 -0.002916 4.13081e-17 -2.38433e-17 2.16e-11 5.26426e-25 2.84431e-35
3911 1 0.000635 0.00672611 -0.00508 -0.002916 6.19859e-17 -2.38442e-17 2.16e-11 0 1.42216e-35
4082 1 0.000635 0.00892582 -0.00508 -0.002916 -8.47033e-21 -2.3845e-17 2.16e-11 0 2.58574e-36
4253 1 0.000635 0.0111255 -0.00508 -0.002916 -1.55248e-05 8.96064e-06 -2.10261e-06 4.29724e-11 1.46902e-12
4422 1 0.000635 0.0133217 -0.00507848 -0.00281696 6.93559e-11 -1.04257e-10 -2.94495e-10 6.55299e-11 1.00853e-12
4590 1 0.000635 0.015502 -0.00506946 -0.0025288 -2.94955e-10 8.48462e-11 2.92122e-09 4.97386e-11 1.86248e-11
2032 1 0.000635 -0.0174447 -0.00380981 -0.00236989 1.92878e-10 -1.06517e-10 -3.22981e-09 2.4726e-13 3.34169e-12
2114 1 0.000635 -0.0163535 -0.00444464 -0.00250889 6.38583e-10 -2.26568e-10 1.44826e-09 1.03006e-12 6.02481e-12
2197 1 0.000635 -0.0152589 -0.00380971 -0.0026219 1.38707e-10 -1.66064e-10 -2.1794e-09 1.14941e-12 5.91781e-12
2280 1 0.000635 -0.0141655 -0.00444459 -0.00274337 6.32771e-10 -2.64069e-10 3.71713e-09 4.96308e-12 1.05773e-11
2365 1 0.000635 -0.0130689 -0.00380987 -0.00283804 -1.92479e-10 -1.26831e-10 -3.82194e-09 1.99821e-11 1.12856e-11
2449 1 0.000635 -0.0119714 -0.004445 -0.002916 -6.02899e-05 -8.74492e-06 6.83838e-06 1.88391e-11 1.17139e-11
2534 1 0.000635 -0.0108715 -0.00381 -0.002916 -7.22189e-09 -8.1656e-09 -1.3545e-06 1.73959e-11 4.65433e-35
2619 1 0.000635 -0.00977167 -0.004445 -0.002916 7.64163e-10 -1.32357e-09 -1.6518e-07 5.15818e-13 6.01185e-35
2705 1 0.000635 -0.00867182 -0.00381 -0.002916 -8.2623e-17 0 2.16e-11 1.05285e-24 2.06859e-35
2790 1 0.000635 -0.00757197 -0.004445 -0.002916 1.44602e-16 -5.96282e-17 2.16e-11 5.26426e-25 3.74932e-35
2876 1 0.000635 -0.00647211 -0.00381 -0.002916 -1.44605e-16 0 2.16e-11 0 3.23218e-35
2961 1 0.000635 -0.00537226 -0.004445 -0.002916 1.44604e-16 -5.9629e-17 2.16e-11 5.26426e-25 3.74932e-35
3048 1 0.000635 -0.00427241 -0.00381 -0.002916 -1.03291e-16 0 2.16e-11 0 1.68073e-35
3134 1 0.000635 -0.00317256 -0.004445 -0.002916 3.09963e-17 -5.36693e-17 2.16e-11 1.57928e-24 8.40366e-36
3221 1 0.000635 -0.0020727 -0.00381 -0.002916 -6.77626e-21 0 2.16e-11 2.10571e-24 0
3307 1 0.000635 -0.000972852 -0.004445 -0.002916 0 -4.77053e-17 2.16e-11 1.05285e-24 5.17148e-36
3394 1 0.000635 0.000127 -0.00381 -0.002916 0 0 2.16e-11 1.05285e-24 0
3480 1 0.000635 0.00122685 -0.004445 -0.002916 0 -4.77053e-17 2.16e-11 1.05285e-24 5.17148e-36
3567 1 0.000635 0.0023267 -0.00381 -0.002916 0 0 2.16e-11 2.10571e-24 0
3653 1 0.000635 0.00342656 -0.004445 -0.002916 3.09811e-17 -5.36701e-17 2.16e-11 1.05285e-24 8.40366e-36
3740 1 0.000635 0.00452641 -0.00381 -0.002916 4.13217e-17 7.70372e-34 2.16e-11 0 1.29287e-35
3826 1 0.000635 0.00562626 -0.004445 -0.002916 -1.44597e-16 -5.9629e-17 2.16e-11 5.26426e-25 3.74932e-35
3912 1 0.000635 0.00672611 -0.00381 -0.002916 8.26298e-17 0 2.16e-11 1.05285e-24 2.06859e-35
3997 1 0.000635 0.00782597 -0.004445 -0.002916 -3.38813e-21 -4.77061e-17 2.16e-11 1.05285e-24 5.17148e-36
4083 1 0.000635 0.00892582 -0.00381 -0.002916 -6.77626e-21 0 2.16e-11 1.05285e-24 0
4168 1 0.000635 0.0100257 -0.004445 -0.002916 7.72851e-10 1.33862e-09 -3.10401e-07 1.82141e-12 6.01185e-35
4254 1 0.000635 0.0111255 -0.00381 -0.002916 4.46083e-09 -6.22863e-10 -1.28505e-06 1.76426e-11 4.65433e-35
4338 1 0.000635 0.0122254 -0.004445 -0.002916 2.73952e-05 2.10413e-06 3.2461e-06 4.59096e-11 5.03382e-12
4423 1 0.000635 0.0133244 -0.00380953 -0.00286469 -7.77202e-11 1.70909e-11 4.1834e-10 4.06892e-11 9.47004e-12
4507 1 0.000635 0.0144189 -0.00444287 -0.00274609 -5.81377e-10 3.3256e-10 5.6602e-09 5.12433e-11 3.3465e-12
4591 1 0.000635 0.0155164 -0.00380802 -0.00267185 -7.92236e-10 4.2801e-10 7.73274e-09 4.66322e-11 6.97097e-12
4673 1 0.000635 0.0166014 -0.00443754 -0.00247219 2.09902e-10 -3.21356e-10 -7.12741e-10 4.25782e-11 9.69631e-12
4756 1 0.000635 0.0177009 -0.00380548 -0.0024105 3.52175e-10 -3.27794e-10 -2.50911e-09 3.61576e-11 5.0934e-12
2033 1 0.000635 -0.0174428 -0.00253992 -0.00235586 1.14051e-09 -1.4161e-10 4.22219e-09 1.86294e-13 2.17636e-12
2115 1 0.000635 -0.0163511 -0.00317483 -0.00249072 2.73262e-10 -1.47828e-10 -1.86877e-09 3.59552e-13 3.4371e-12
2198 1 0.000635 -0.0152572 -0.00253988 -0.00260895 5.44701e-10 -1.6705e-10 1.23144e-09 6.84772e-13 3.55338e-12
2281 1 0.000635 -0.0141639 -0.00317484 -0.00273097 -1.14385e-10 -1.42119e-10 -3.89335e-09 2.67039e-12 5.94421e-12
2366 1 0.000635 -0.0130686 -0.00253996 -0.00283546 2.33147e-10 -7.3778e-11 1.30207e-09 2.15029e-11 4.27295e-12
2450 1 0.000635 -0.0119714 -0.003175 -0.002916 -3.06786e-05 -1.6388e-06 4.43623e-06 2.06963e-11 2.90388e-12
2535 1 0.000635 -0.0108715 -0.00254 -0.002916 -1.06388e-08 -2.71711e-09 -1.404e-06 1.8657e-11 6.33506e-35
2620 1 0.000635 -0.00977167 -0.003175 -0.002916 -1.3427e-16 4.1748e-17 2.16e-11 5.26426e-25 5.81792e-35
2706 1 0.000635 -0.00867182 -0.00254 -0.002916 -7.2301e-17 -5.97417e-18 2.16e-11 0 1.61609e-35
2791 1 0.000635 -0.00757197 -0.003175 -0.002916 1.44602e-16 4.77053e-17 2.16e-11 5.26426e-25 3.55539e-35
2877 1 0.000635 -0.00647211 -0.00254 -0.002916 -1.44605e-16 -1.19365e-17 2.16e-11 0 3.23218e-35
2962 1 0.000635 -0.00537226 -0.003175 -0.002916 1.44604e-16 4.7707e-17 2.16e-11 0 3.55539e-35
3049 1 0.000635 -0.00427241 -0.00254 -0.002916 -1.03284e-16 -1.19373e-17 2.16e-11 5.26426e-25 1.93931e-35
3135 1 0.000635 -0.00317256 -0.003175 -0.002916 3.09963e-17 4.17472e-17 2.16e-11 1.05285e-24 6.46435e-36
3222 1 0.000635 -0.0020727 -0.00254 -0.002916 0 -1.43996e-20 2.16e-11 0 0
3308 1 0.000635 -0.000972852 -0.003175 -0.002916 0 3.57823e-17 2.16e-11 1.05285e-24 3.23218e-36
3395 1 0.000635 0.000127 -0.00254 -0.002916 0 -1.35525e-20 2.16e-11 0 0
3481 1 0.000635 0.00122685 -0.003175 -0.002916 0 3.57823e-17 2.16e-11 1.05285e-24 3.23218e-36
3568 1 0.000635 0.0023267 -0.00254 -0.002916 -6.77626e-21 -1.35525e-20 2.16e-11 0 0
3654 1 0.000635 0.00342656 -0.003175 -0.002916 3.09777e-17 4.17463e-17 2.16e-11 1.05285e-24 6.46435e-36
3741 1 0.000635 0.00452641 -0.00254 -0.002916 4.13115e-17 -1.19382e-17 2.16e-11 5.26426e-25 1.93931e-35
3827 1 0.000635 0.00562626 -0.003175 -0.002916 -1.44595e-16 4.77053e-17 2.16e-11 5.26426e-25 3.55539e-35
3913 1 0.000635 0.00672611 -0.00254 -0.002916 7.23095e-17 -5.97502e-18 2.16e-11 0 1.61609e-35
3998 1 0.000635 0.00782597 -0.003175 -0.002916 0 3.57823e-17 2.16e-11 1.05285e-24 3.23218e-36
4084 1 0.000635 0.00892582 -0.00254 -0.002916 -8.47033e-21 -1.27055e-20 2.16e-11 0 0
4169 1 0.000635 0.0100257 -0.003175 -0.002916 1.3427e-16 4.1748e-17 2.16e-11 5.26426e-25 5.81792e-35
4255 1 0.000635 0.0111255 -0.00254 -0.002916 2.24285e-09 -3.84265e-09 -9.00069e-07 7.65879e-12 6.33506e-35
4339 1 0.000635 0.0122254 -0.003175 -0.002916 2.95267e-05 1.23946e-05 1.89072e-06 1.63662e-11 4.03997e-12
4424 1 0.000635 0.0133247 -0.00253969 -0.0028693 -1.34334e-10 4.41327e-11 1.70048e-09 1.52345e-11 9.94234e-12
4508 1 0.000635 0.0144226 -0.00317424 -0.00279629 -3.51371e-10 1.89123e-10 4.00966e-09 3.11616e-11 1.30295e-11
4592 1 0.000635 0.0155201 -0.00253924 -0.00271553 -2.53868e-10 1.38856e-10 3.0887e-09 2.54536e-11 1.53233e-11
4674 1 0.000635 0.0166137 -0.0031735 -0.00259041 -7.00021e-11 -8.76067e-11 9.74996e-10 3.87875e-11 9.22961e-12
4757 1 0.000635 0.0177103 -0.00253897 -0.00249926 -1.28939e-10 -2.10623e-12 1.00476e-09 2.67325e-11 9.8109e-12
4839 1 0.000635 0.0187991 -0.0031724 -0.00233479 -3.45287e-10 2.86122e-10 2.95308e-09 2.83444e-11 4.36254e-12
2034 1 0.000635 -0.0174418 -0.00126997 -0.00234801 5.86704e-10 -7.69265e-11 -7.27349e-10 1.53053e-13 1.70999e-12
2116 1 0.000635 -0.0163497 -0.00190494 -0.00247982 4.73266e-10 -1.06373e-10 -4.88019e-10 2.70169e-13 2.3714e-12
2199 1 0.000635 -0.0152564 -0.00126996 -0.00260279 2.95404e-10 -6.33248e-11 -8.83818e-10 5.4248e-13 2.49807e-12
2282 1 0.000635 -0.0141632 -0.00190494 -0.00272543 6.06859e-10 -1.00586e-10 3.42135e-09 2.90241e-12 3.25391e-12