ITEM: TIMESTEP
150000
ITEM: NUMBER OF ATOMS
5843
ITEM: BOX BOUNDS ff ff ff
-2.5000000000000000e-01 2.5000000000000000e-01
-2.5000000000000000e-01 2.5000000000000000e-01
-1.0000000000000001e-01 1.0000000000000001e-01
ITEM: ATOMS id type radius x y z fx fy fz v_pressure c_bendingE c_stretchingE
2545 2 0.002 -0.0173246 -0.141976 -0.000266542 3.24996e-08 5.23155e-08 5.26042e-08 3.05154e-06 2.58318e-09 9.36641e-09
2465 2 0.002 -0.0207817 -0.143989 -1.18676e-05 2.21573e-08 2.30001e-08 -8.25777e-09 3.12971e-06 2.34506e-09 1.73912e-09
2703 2 0.002 -0.0103959 -0.145981 -0.000198823 3.28874e-09 4.46345e-08 8.09669e-08 6.54646e-06 2.24628e-09 1.0583e-08
2862 2 0.002 -0.00347461 -0.145981 -0.000198404 -1.9174e-08 3.26709e-08 -6.59644e-08 3.28661e-06 2.5101e-09 1.07829e-08
2863 2 0.002 -0.00349051 -0.141967 -0.000597199 -3.76451e-08 9.87605e-08 1.75181e-09 2.65012e-06 1.21709e-09 1.69659e-08
2783 2 0.002 -0.00694342 -0.143975 -0.000416268 -1.12926e-08 8.12311e-08 1.40984e-07 2.70131e-06 2.54673e-09 2.00311e-08
2704 2 0.002 -0.0104109 -0.141964 -0.00060933 6.98694e-09 8.5733e-08 -4.81594e-08 7.8266e-06 1.33964e-09 1.64012e-08
2624 2 0.002 -0.0138629 -0.143978 -0.000284189 5.74996e-09 3.39499e-08 -1.43931e-07 3.42575e-06 2.53422e-09 1.1972e-08
2942 2 0.002 -1.92191e-05 -0.143977 -0.000246919 -5.92339e-08 5.88034e-08 1.43404e-07 2.31852e-06 2.77603e-09 1.23344e-08
3022 2 0.002 0.00344459 -0.141981 -0.000133067 -7.36389e-08 2.79179e-08 -1.7315e-07 3.15149e-06 3.35684e-09 3.64397e-08
3655 2 0.002 0.03119 -0.14198 -0.000252107 -3.26059e-08 -8.4969e-08 9.04966e-08 6.25009e-06 1.97513e-09 8.69077e-09
3340 2 0.002 0.0173056 -0.141992 -9.9926e-05 -1.05832e-07 -8.78509e-08 -2.45363e-09 6.07784e-06 1.19085e-09 6.67677e-09
3498 2 0.002 0.0242553 -0.141984 -0.000255926 -6.34696e-08 -1.134e-07 -3.49467e-08 2.788e-06 9.39398e-10 6.1231e-09
3419 2 0.002 0.0207846 -0.143987 -9.49031e-05 -4.86704e-08 -6.73984e-08 -7.01747e-08 4.22017e-06 8.0483e-10 2.79252e-09
3576 2 0.002 0.0277183 -0.143985 -0.0001383 -2.21696e-08 -7.55133e-08 -1.06999e-07 4.98756e-06 1.13366e-09 5.00756e-09
63 1 0.015 -0.057209 -0.134807 -0.00109037 8.62325e-07 8.31076e-07 2.95329e-07 -1.94756e-06 0 4.20659e-07
1622 2 0.002 -0.0588966 -0.133986 -8.39155e-05 3.59812e-08 -2.73253e-08 -3.30669e-07 1.9244e-06 6.30601e-09 1.18248e-08
1697 2 0.002 -0.0554458 -0.131989 -9.88817e-05 8.80562e-08 -3.07779e-08 -5.66737e-08 7.49867e-06 1.11423e-08 4.42258e-07
1696 2 0.002 -0.0554255 -0.135992 -6.52539e-05 2.48102e-08 -8.33308e-09 1.26474e-07 2.68452e-06 6.3061e-09 1.28939e-09
2547 2 0.002 -0.0173606 -0.133942 -0.000844538 4.17963e-08 1.09702e-07 1.17423e-07 9.53625e-06 2.10118e-09 1.74746e-08
2468 2 0.002 -0.0208091 -0.131951 -0.000383421 1.64534e-08 6.89516e-08 4.9318e-08 4.44267e-06 1.76932e-09 1.55483e-08
2548 2 0.002 -0.0173765 -0.129924 -0.00103884 8.49325e-09 1.00091e-07 2.82039e-08 1.17482e-05 4.11147e-09 2.58407e-08
2549 2 0.002 -0.0173882 -0.125912 -0.00102396 -2.41231e-08 8.56473e-08 1.30877e-08 1.29568e-05 5.9237e-09 3.04262e-08
2546 2 0.002 -0.0173424 -0.137959 -0.000564775 2.08417e-08 7.342e-08 -1.49186e-07 3.81815e-06 1.1943e-09 1.16903e-08
2467 2 0.002 -0.0208017 -0.135967 -0.000262631 4.55871e-08 6.95076e-08 6.85759e-08 3.8093e-06 1.11754e-09 1.34073e-08
2469 2 0.002 -0.0208154 -0.127939 -0.000372481 -1.24536e-08 5.3915e-08 1.55829e-08 9.86523e-06 1.71982e-09 1.70463e-08
2466 2 0.002 -0.0207921 -0.139979 -0.000103972 3.93024e-08 5.23213e-08 3.27601e-08 5.82276e-06 9.86019e-10 7.69356e-09
85 1 0.015 -0.00911092 -0.126133 -0.00488548 -5.3102e-06 8.10188e-07 1.08923e-06 -5.7807e-06 0 1.21626e-06
2708 2 0.002 -0.0105468 -0.12587 -0.00277395 1.27353e-08 1.77464e-07 1.69965e-07 3.50194e-05 5.95164e-08 6.45888e-07
2867 2 0.002 -0.00356407 -0.125908 -0.00220556 4.14189e-08 2.3221e-07 7.31989e-08 1.90042e-05 3.40364e-08 5.91366e-08
2627 2 0.002 -0.0139277 -0.131923 -0.0015108 -1.57107e-08 1.2226e-07 -2.28024e-07 1.28483e-05 6.02071e-09 2.89159e-08
2628 2 0.002 -0.0139568 -0.127898 -0.00183044 -6.76405e-09 1.32864e-07 1.90755e-08 1.75068e-05 2.54963e-08 5.64392e-08
2706 2 0.002 -0.0104594 -0.133931 -0.0016474 1.19101e-08 1.72391e-07 -6.83361e-08 1.30552e-05 5.35295e-09 3.64432e-08
2707 2 0.002 -0.0104987 -0.12991 -0.00224023 1.55413e-08 1.90455e-07 2.6627e-08 1.88655e-05 4.34523e-08 6.17354e-08
2786 2 0.002 -0.00701183 -0.131929 -0.00210195 1.54014e-08 2.33729e-07 6.55994e-08 8.4927e-06 1.8332e-08 6.7561e-08
2787 2 0.002 -0.00704578 -0.127903 -0.00279968 1.43482e-08 2.35917e-07 3.72064e-08 3.13366e-05 5.00491e-08 4.68203e-07
2866 2 0.002 -0.00355492 -0.129929 -0.00211443 2.30929e-08 2.35727e-07 -3.24138e-08 8.60341e-06 1.50505e-08 7.20717e-08
2946 2 0.002 -8.58937e-05 -0.12794 -0.00172077 1.79429e-08 2.10641e-07 1.90829e-07 1.24959e-05 5.71695e-09 3.08339e-08
2784 2 0.002 -0.00696106 -0.139959 -0.000910439 -1.00868e-08 1.16707e-07 -1.17577e-07 4.63823e-06 1.34573e-09 2.44787e-08
2625 2 0.002 -0.0138769 -0.139959 -0.000671376 3.61093e-08 1.12201e-07 1.61834e-07 7.75289e-06 1.42194e-09 1.449e-08
2705 2 0.002 -0.0104313 -0.137949 -0.00110172 1.79448e-08 1.45458e-07 7.36048e-09 9.73118e-06 1.95358e-09 2.37861e-08
2785 2 0.002 -0.00698341 -0.135945 -0.00146735 1.73282e-09 1.9426e-07 1.88404e-08 5.9647e-06 3.20051e-09 3.8128e-08
2864 2 0.002 -0.00350793 -0.137958 -0.00109343 -3.58551e-08 1.64609e-07 2.93286e-08 2.52446e-06 1.34023e-09 2.91235e-08
2626 2 0.002 -0.0138997 -0.135942 -0.00109361 3.57425e-08 1.37625e-07 6.2403e-08 9.81829e-06 1.94733e-09 1.94246e-08
2865 2 0.002 -0.00353087 -0.133948 -0.00163209 1.62904e-09 1.94518e-07 -1.3987e-07 4.23096e-06 4.61475e-09 4.31649e-08
2945 2 0.002 -7.59632e-05 -0.131953 -0.00152207 1.46726e-08 1.74483e-07 -2.48948e-07 5.88206e-06 3.46958e-09 3.91704e-08
2944 2 0.002 -5.50547e-05 -0.135963 -0.00110173 -5.94375e-08 1.70618e-07 8.85119e-08 2.56489e-06 1.19087e-09 3.34372e-08
2943 2 0.002 -3.24585e-05 -0.139969 -0.000636328 -6.25971e-08 9.45398e-08 -9.43628e-08 3.04245e-06 8.62963e-10 2.63873e-08
3023 2 0.002 0.00341935 -0.137976 -0.000566465 -1.10659e-07 1.07438e-07 1.78697e-07 3.06505e-06 1.79396e-09 2.94737e-08
3103 2 0.002 0.0068782 -0.135989 -0.000555453 -1.06113e-07 3.505e-08 1.77067e-08 4.24071e-06 1.53753e-09 1.97496e-08
3104 2 0.002 0.00687081 -0.131985 -0.000914197 -4.18721e-08 4.64112e-08 -7.43207e-08 3.7091e-06 2.19182e-09 1.27051e-08
3024 2 0.002 0.00340131 -0.133973 -0.00100425 -5.21376e-08 1.18113e-07 -5.8799e-08 2.30019e-06 1.64804e-09 2.60542e-08
3184 2 0.002 0.0103504 -0.129992 -0.000868232 -2.01323e-08 -4.35673e-08 7.39473e-08 0.00586204 2.45061e-09 6.28337e-09
3263 2 0.002 0.0138308 -0.131996 -0.000751831 -6.94303e-08 -1.54724e-07 -1.57184e-07 5.71288e-06 1.45102e-09 5.71437e-09
3183 2 0.002 0.0103502 -0.133995 -0.000629418 -9.63991e-08 -4.79668e-08 3.03387e-09 6.82216e-06 1.58053e-09 8.48501e-09
3025 2 0.002 0.00339191 -0.129966 -0.00128318 -3.10114e-09 1.50827e-07 7.49888e-08 9.03884e-06 2.87974e-09 1.91747e-08
3026 2 0.002 0.00339126 -0.125958 -0.00127714 8.55543e-08 1.60738e-07 -1.1388e-07 9.05041e-06 3.16683e-09 1.50643e-08
3105 2 0.002 0.00687011 -0.127978 -0.00104452 3.3298e-08 5.85954e-08 2.70841e-09 6.81663e-06 2.9938e-09 8.96688e-09
3264 2 0.002 0.0138353 -0.127993 -0.000873778 1.71246e-08 -1.53595e-07 9.47223e-08 0.00504682 2.65371e-09 5.11429e-09
3185 2 0.002 0.0103552 -0.125988 -0.000851613 6.64696e-08 -3.8811e-08 -5.8679e-08 5.42447e-06 3.31283e-09 5.74475e-09
3102 2 0.002 0.00689248 -0.139994 -6.27514e-05 -1.07169e-07 -1.37738e-08 -2.26604e-07 5.22065e-06 1.16307e-08 3.4642e-08
3182 2 0.002 0.0103547 -0.137997 -0.000224663 -1.33751e-07 -3.78423e-08 6.46149e-08 8.21233e-06 2.02268e-09 1.38542e-08
3262 2 0.002 0.013829 -0.135995 -0.000449537 -1.28053e-07 -1.18499e-07 4.23376e-08 6.49764e-06 8.5719e-10 6.82578e-09
3261 2 0.002 0.0138309 -0.139994 -7.32787e-05 -1.34282e-07 -8.05313e-08 8.63698e-08 7.10421e-06 4.04392e-09 8.28699e-09
3501 2 0.002 0.0242741 -0.129977 -0.00123379 -2.0521e-08 -3.27132e-07 1.36781e-07 0.00686511 1.28437e-09 1.06688e-08
3579 2 0.002 0.0277466 -0.131969 -0.0012494 -3.77036e-08 -2.86304e-07 2.81572e-07 7.7242e-06 8.56817e-10 1.26036e-08
3423 2 0.002 0.0207983 -0.127985 -0.00112077 3.54972e-09 -3.16166e-07 -8.11992e-08 0.00583824 1.93246e-09 8.10145e-09
3421 2 0.002 0.020787 -0.135985 -0.00065088 -1.08148e-07 -2.30163e-07 5.292e-08 6.098e-06 2.94063e-10 7.52163e-09
3499 2 0.002 0.0242608 -0.137979 -0.000586954 -9.36066e-08 -2.10564e-07 1.71342e-08 6.23917e-06 2.33881e-10 7.31656e-09
3577 2 0.002 0.0277292 -0.139975 -0.000456458 -6.21179e-08 -1.53812e-07 1.0519e-07 6.08277e-06 6.11187e-10 7.03943e-09
3343 2 0.002 0.0173148 -0.129993 -0.000912478 -2.80854e-08 -2.39171e-07 6.55794e-08 0.00542011 1.59625e-09 6.30833e-09
3344 2 0.002 0.0173211 -0.125991 -0.000939659 4.88354e-08 -2.47887e-07 -2.67547e-08 2.50424e-06 2.83913e-09 5.89465e-09
3422 2 0.002 0.0207927 -0.131987 -0.000943213 -6.36772e-08 -2.89548e-07 -7.10587e-09 0.00607155 8.20221e-10 8.15615e-09
3500 2 0.002 0.0242678 -0.133979 -0.000935149 -8.05282e-08 -2.98207e-07 -8.78775e-08 0.00666681 4.76799e-10 9.21703e-09
3578 2 0.002 0.0277387 -0.135972 -0.000851545 -7.40143e-08 -2.59015e-07 -6.56273e-08 7.03428e-06 4.70504e-10 9.63477e-09
3502 2 0.002 0.0242791 -0.125971 -0.00139758 4.83898e-08 -3.41814e-07 1.10095e-07 0.00704669 2.50111e-09 1.18085e-08
3580 2 0.002 0.0277524 -0.127962 -0.00158276 -5.84215e-09 -3.47337e-07 -1.27906e-07 8.39758e-06 2.02953e-09 1.56908e-08
3342 2 0.002 0.01731 -0.133992 -0.000687944 -9.83102e-08 -2.05776e-07 9.10074e-08 5.92391e-06 6.27265e-10 6.86645e-09
3656 2 0.002 0.0312035 -0.13797 -0.000667858 -5.6005e-08 -2.01964e-07 -1.59757e-07 7.44485e-06 7.03998e-10 1.15364e-08
3657 2 0.002 0.0312135 -0.133964 -0.00114205 -5.18283e-08 -2.2883e-07 2.29e-07 8.39335e-06 6.08263e-10 1.52367e-08
3658 2 0.002 0.0312214 -0.129956 -0.00161026 -3.89519e-08 -3.19242e-07 -2.2238e-07 3.17536e-06 1.28434e-09 1.98849e-08
3341 2 0.002 0.0173066 -0.13799 -0.000374381 -1.36446e-07 -1.65899e-07 -8.79712e-08 6.17296e-06 6.51472e-10 7.02869e-09
3420 2 0.002 0.0207827 -0.139984 -0.000339612 -1.05485e-07 -1.47697e-07 9.36355e-08 5.70239e-06 4.37469e-10 5.84821e-09
3659 2 0.002 0.031226 -0.125942 -0.00201357 2.74018e-08 -2.83822e-07 1.22543e-07 5.52024e-06 3.41579e-09 2.61579e-08
3734 2 0.002 0.0346723 -0.135965 -0.000901902 -5.16527e-08 -1.56804e-07 1.65612e-07 9.0433e-06 6.81684e-10 2.15156e-08
3889 2 0.002 0.0415836 -0.135966 -0.000794159 -5.066e-08 -9.88436e-08 7.58598e-08 4.87106e-06 1.31391e-09 2.68434e-08
3966 2 0.002 0.0450436 -0.133966 -0.000929876 -7.26586e-08 -1.07568e-07 1.76048e-08 3.37798e-06 9.35818e-10 3.00023e-08
3733 2 0.002 0.03466 -0.139976 -0.000371591 -2.98009e-08 -1.11477e-07 -1.35997e-07 8.36349e-06 3.77219e-09 1.79191e-08
3811 2 0.002 0.0381216 -0.137973 -0.000561421 -3.52202e-08 -8.48502e-08 1.01013e-07 1.01919e-05 3.92539e-09 3.47845e-08
3888 2 0.002 0.0415709 -0.139979 -0.000263183 -1.02422e-08 -6.42576e-08 -1.25561e-07 8.46191e-06 3.61575e-09 1.72173e-08
3965 2 0.002 0.0450369 -0.137979 -0.000389006 -3.07382e-08 -6.16617e-08 -6.81302e-09 4.60183e-06 4.07692e-09 2.18693e-08
3891 2 0.002 0.0416078 -0.127936 -0.00205446 -6.64366e-08 -1.41635e-07 6.10608e-08 7.07475e-06 3.124e-09 5.52178e-08
3736 2 0.002 0.0346909 -0.12794 -0.00202332 -6.4754e-09 -2.09334e-07 2.63009e-07 6.12767e-06 2.09878e-09 3.4696e-08
3813 2 0.002 0.0381467 -0.129944 -0.00180024 -4.95227e-08 -2.02682e-07 -5.88454e-08 6.24737e-06 1.69428e-09 4.35674e-08
3890 2 0.002 0.0415954 -0.131953 -0.00140686 -7.06069e-08 -1.48968e-07 -1.74475e-09 3.80211e-06 1.17863e-09 3.84127e-08
3967 2 0.002 0.0450524 -0.129951 -0.00151027 -9.15734e-08 -1.35611e-07 -1.56835e-08 2.88802e-06 1.44631e-09 3.74206e-08
3735 2 0.002 0.0346828 -0.131955 -0.0014659 -5.11617e-08 -2.43526e-07 -8.82008e-08 3.42873e-06 8.0454e-10 2.66683e-08
3812 2 0.002 0.0381352 -0.13396 -0.00117285 -5.60294e-08 -1.68798e-07 -2.50345e-08 1.0653e-05 6.14445e-10 3.43491e-08
3968 2 0.002 0.0450659 -0.125932 -0.00208773 -8.03726e-08 -1.19962e-07 1.15481e-08 4.74388e-06 4.28633e-09 4.80309e-08
3814 2 0.002 0.0381565 -0.125923 -0.00244931 -2.02813e-08 -1.51537e-07 1.66852e-07 1.60708e-05 5.47035e-09 6.31587e-08
4042 2 0.002 0.0484972 -0.131966 -0.000937849 -9.88415e-08 -1.10421e-07 3.01962e-08 2.37918e-06 1.41778e-09 2.63081e-08
4041 2 0.002 0.0484961 -0.135981 -0.000428676 -4.90861e-08 -7.17065e-08 -3.80257e-08 2.38832e-06 4.6063e-09 2.6245e-08
4043 2 0.002 0.0485062 -0.127951 -0.0014196 -1.1653e-07 -1.29677e-07 4.54332e-08 2.71352e-06 1.75795e-09 2.95663e-08
4119 2 0.002 0.0519587 -0.125954 -0.00113282 -1.23285e-07 -1.59362e-07 7.83768e-08 3.2381e-06 1.66114e-09 2.29907e-08
4118 2 0.002 0.0519519 -0.129966 -0.000810599 -1.00185e-07 -1.4691e-07 -1.02801e-07 4.19615e-06 1.41457e-09 1.7475e-08
4194 2 0.002 0.0554088 -0.127971 -0.000521953 -1.10237e-07 -1.81145e-07 -1.08367e-08 7.66573e-06 9.75523e-10 1.68578e-08
4117 2 0.002 0.051948 -0.13398 -0.00042274 -7.64224e-08 -7.79582e-08 4.37374e-08 2.58911e-06 3.74174e-09 1.77461e-08
4192 2 0.002 0.0554153 -0.135987 -0.000116393 -3.01909e-08 -4.87296e-08 4.01513e-08 2.25622e-06 3.32059e-09 4.65019e-09
4193 2 0.002 0.0554075 -0.131976 -0.000300639 -9.75727e-08 -1.14817e-07 1.30876e-07 2.95151e-06 2.62267e-09 8.29604e-09
4269 2 0.002 0.0588625 -0.125986 -0.000143369 -1.10014e-07 -2.1976e-07 9.1542e-08 6.91177e-06 1.89773e-09 1.48987e-08
938 2 0.002 -0.0935228 -0.109989 -0.000321296 2.42738e-08 6.7547e-08 -8.11092e-09 1.59039e-06 3.39902e-09 1.07743e-08
1068 2 0.002 -0.0865942 -0.109994 -0.000340897 4.75511e-08 1.13398e-07 2.06898e-09 2.21709e-06 2.58234e-09 1.36468e-08
1002 2 0.002 -0.0900636 -0.111987 -0.000198982 2.06665e-08 7.70068e-08 -7.67356e-08 2.11424e-06 3.27603e-09 4.82216e-09
2470 2 0.002 -0.0208147 -0.123936 -0.000167987 -3.43169e-08 1.73407e-08 1.00837e-07 5.36114e-06 1.33546e-09 2.35791e-08
2550 2 0.002 -0.0173774 -0.121915 -0.000692053 -1.32209e-07 8.8202e-08 -3.9456e-07 1.31005e-05 3.64547e-09 3.77986e-08
2551 2 0.002 -0.017359 -0.117926 -0.000165692 -9.75708e-08 4.59388e-09 -1.91215e-07 1.13201e-05 2.04553e-09 2.54504e-08
2630 2 0.002 -0.0139307 -0.119897 -0.00103678 7.96988e-09 2.44326e-08 1.92187e-07 1.44319e-05 6.33538e-09 4.20075e-08
2788 2 0.002 -0.00704632 -0.123864 -0.00258946 4.55021e-08 2.18553e-07 -1.2257e-07 3.16019e-05 4.83339e-08 4.53929e-07
2789 2 0.002 -0.00701365 -0.119894 -0.00160859 6.60846e-08 1.78401e-07 -1.09455e-07 1.78903e-05 1.53876e-08 6.88108e-08
2868 2 0.002 -0.00355617 -0.121908 -0.00175887 7.93932e-08 1.99848e-07 2.15517e-08 1.76054e-05 1.29318e-08 6.47487e-08
2710 2 0.002 -0.0104627 -0.117899 -0.00103375 3.51953e-09 1.22212e-07 -2.39139e-07 1.46529e-05 5.34334e-09 4.83738e-08
2629 2 0.002 -0.0139588 -0.123887 -0.00167666 6.60425e-09 9.95358e-08 1.42297e-07 1.85224e-05 2.3993e-08 7.38308e-08
2709 2 0.002 -0.0105011 -0.121873 -0.00192241 5.01469e-08 1.01082e-07 2.18939e-07 2.03557e-05 4.11372e-08 7.94284e-08
2947 2 0.002 -8.4904e-05 -0.123934 -0.00154522 8.27008e-08 1.98679e-07 7.38239e-08 1.28284e-05 5.02234e-09 3.09039e-08
2869 2 0.002 -0.0035295 -0.117936 -0.000991825 8.24906e-08 1.20322e-07 1.69556e-07 1.33742e-05 3.80253e-09 3.52305e-08
2948 2 0.002 -7.04039e-05 -0.119953 -0.00102088 1.03262e-07 1.47155e-07 1.82916e-07 1.24445e-05 2.74355e-09 3.58107e-08
2790 2 0.002 -0.00698514 -0.115926 -0.000710854 4.51345e-08 5.58149e-08 1.43214e-07 1.30564e-05 3.28817e-09 3.84588e-08
2631 2 0.002 -0.0139004 -0.115914 -0.00031395 -2.24698e-08 -3.43196e-08 7.33919e-08 1.18657e-05 2.14293e-09 3.09959e-08
2711 2 0.002 -0.0104331 -0.113922 -0.00020638 -2.04237e-08 5.826e-08 -3.29325e-07 5.93455e-06 2.06491e-09 3.64638e-08
2870 2 0.002 -0.00350445 -0.113968 -0.000215813 8.12085e-08 1.19654e-07 -1.37444e-07 1.08071e-05 1.67759e-09 2.10304e-08
2949 2 0.002 -4.42883e-05 -0.115988 -0.000329982 1.05636e-07 1.24784e-07 8.38019e-08 5.49817e-06 1.22142e-09 2.55782e-08
3107 2 0.002 0.0068894 -0.120003 -0.000379346 1.28033e-07 3.68639e-08 2.12976e-07 7.99693e-06 2.05142e-09 1.57656e-08
3266 2 0.002 0.01386 -0.120023 -0.000244063 1.29388e-07 -1.34573e-07 1.40971e-08 5.96293e-06 4.41522e-09 6.85644e-09
3186 2 0.002 0.010366 -0.122 -0.00051609 1.24705e-07 -2.60858e-08 -8.0027e-08 5.9254e-06 3.37692e-09 7.39182e-09
3027 2 0.002 0.00339948 -0.121966 -0.000938297 1.3852e-07 1.57654e-07 -1.11572e-07 4.78683e-06 2.41133e-09 2.03455e-08
3106 2 0.002 0.00687582 -0.123978 -0.000869417 9.65011e-08 5.11544e-08 1.45566e-07 3.47439e-06 2.9698e-09 9.5999e-09
3265 2 0.002 0.0138437 -0.123995 -0.000722604 9.04509e-08 -1.38481e-07 -1.21007e-07 4.92817e-06 3.70866e-09 5.1874e-09
3028 2 0.002 0.00341843 -0.118001 -0.000339464 1.40152e-07 1.30432e-07 -1.43159e-08 5.08598e-06 1.34411e-09 2.70805e-08
3583 2 0.002 0.0277684 -0.115972 -0.00134773 8.8505e-08 -2.30954e-07 -1.50129e-08 2.75128e-06 2.41731e-09 3.37142e-08
3584 2 0.002 0.0277812 -0.112019 -0.000765235 2.77836e-08 -1.63897e-07 -6.86924e-08 3.4845e-06 1.83751e-09 3.20422e-08
3345 2 0.002 0.0173325 -0.122001 -0.000682535 1.06759e-07 -2.32029e-07 -3.14482e-08 1.74237e-06 3.28915e-09 6.71785e-09
3424 2 0.002 0.0208051 -0.123984 -0.00108544 7.46439e-08 -3.12882e-07 -9.01385e-09 2.89094e-06 2.7897e-09 8.41874e-09
3426 2 0.002 0.0208397 -0.116047 -0.000212684 8.79052e-08 -2.31742e-07 -6.21042e-08 2.65716e-06 2.21903e-09 2.35877e-08
3503 2 0.002 0.0242848 -0.12197 -0.00133722 6.7602e-08 -3.13939e-07 -1.88381e-07 3.73543e-06 3.00123e-09 1.41655e-08
3504 2 0.002 0.0242964 -0.11799 -0.00100963 6.72712e-08 -2.60953e-07 -2.28875e-07 2.10848e-06 2.15617e-09 2.23174e-08
3505 2 0.002 0.0243133 -0.114036 -0.000479612 9.48797e-08 -2.56194e-07 1.667e-07 3.03857e-06 1.15345e-09 3.04363e-08
3581 2 0.002 0.0277558 -0.123951 -0.00176767 5.46949e-08 -3.28597e-07 2.49132e-09 9.2935e-06 3.77113e-09 1.99291e-08
3582 2 0.002 0.0277586 -0.119949 -0.00170666 1.21689e-07 -2.97039e-07 2.10065e-07 5.10996e-06 3.77994e-09 2.49954e-08
3425 2 0.002 0.0208181 -0.12 -0.00077175 1.09919e-07 -2.86371e-07 -4.36742e-09 2.14753e-06 2.54353e-09 1.22982e-08
3346 2 0.002 0.0173546 -0.118043 -0.000113797 1.10729e-07 -1.89814e-07 -8.5536e-08 2.21677e-06 3.75299e-09 1.14638e-08
3660 2 0.002 0.0312275 -0.121924 -0.00225716 7.7837e-08 -2.53083e-07 1.30776e-07 1.32701e-05 7.10403e-09 3.9405e-08
3661 2 0.002 0.0312265 -0.11792 -0.00217787 5.19077e-08 -1.93458e-07 -2.22442e-07 1.45135e-05 8.98602e-09 4.41137e-08
3662 2 0.002 0.0312384 -0.113951 -0.00167595 4.31898e-08 -1.22487e-07 -2.10277e-07 1.4523e-05 4.90956e-09 5.30283e-08
3663 2 0.002 0.0312464 -0.110005 -0.000906964 1.63407e-08 -8.80922e-08 -1.91768e-08 5.88275e-06 2.8519e-09 3.25306e-08
109 1 0.015 0.0403164 -0.117523 -0.00628997 2.30817e-06 1.86559e-06 2.74394e-07 -6.65455e-06 0 2.16227e-06
3818 2 0.002 0.0381571 -0.109938 -0.00161951 7.16103e-08 8.31701e-08 -1.18159e-07 8.80101e-06 7.46093e-09 8.03137e-08
3894 2 0.002 0.0416522 -0.115813 -0.00357737 8.19405e-08 6.26957e-09 -2.26313e-08 4.70751e-05 7.64131e-08 1.21774e-06
3895 2 0.002 0.0416236 -0.111878 -0.00232087 1.15322e-07 1.5036e-07 -2.90898e-07 1.14914e-05 3.35284e-08 1.30118e-07
3971 2 0.002 0.0450886 -0.113872 -0.0024021 1.22706e-07 7.35339e-08 -2.01221e-07 1.08558e-05 2.72328e-08 1.09475e-07
3972 2 0.002 0.0450712 -0.109922 -0.00148568 1.2416e-07 1.00959e-07 -1.22289e-08 7.38247e-06 9.44195e-09 4.89421e-08
3740 2 0.002 0.0347025 -0.111935 -0.00181124 6.77461e-08 -4.98433e-08 -2.13949e-08 8.56732e-06 7.64369e-09 6.47544e-08
3737 2 0.002 0.0346943 -0.123918 -0.00254008 2.99026e-08 -2.00191e-07 1.20246e-07 1.5462e-05 8.63709e-09 4.82396e-08
3739 2 0.002 0.0346945 -0.115887 -0.00266385 8.31119e-08 -1.13556e-07 -6.56024e-08 2.24473e-05 3.40121e-08 1.10958e-07
3816 2 0.002 0.0381542 -0.117839 -0.00375313 7.93089e-08 -6.82576e-08 -2.0161e-08 4.66151e-05 7.72378e-08 1.18098e-06
3817 2 0.002 0.0381633 -0.113867 -0.00276487 9.05754e-08 6.14267e-09 -5.68384e-08 2.61361e-05 6.45572e-08 1.27631e-07
3969 2 0.002 0.0450818 -0.121906 -0.00259993 -3.07151e-08 -8.2937e-08 -9.80105e-09 1.89189e-05 1.49467e-08 7.31658e-08
3738 2 0.002 0.034692 -0.119888 -0.00290638 1.68891e-08 -1.78569e-07 -2.91688e-07 2.12348e-05 2.82101e-08 9.70862e-08
3815 2 0.002 0.0381615 -0.121892 -0.00312574 8.26881e-09 -1.48086e-07 -1.17124e-07 2.32936e-05 5.06151e-08 1.0441e-07
3892 2 0.002 0.041624 -0.123913 -0.00274869 -3.21912e-08 -1.20828e-07 -2.0255e-08 1.9492e-05 1.48264e-08 8.83598e-08
3893 2 0.002 0.0416497 -0.11988 -0.00350281 2.40091e-08 -6.10981e-08 1.05134e-08 3.34828e-05 6.39413e-08 3.34223e-07
3970 2 0.002 0.045094 -0.117873 -0.00279939 6.31018e-08 -2.09192e-08 -1.34047e-07 2.2843e-05 5.03324e-08 8.78938e-08
4046 2 0.002 0.0485333 -0.115905 -0.00189425 7.06474e-08 -2.68855e-08 -1.00949e-07 1.50863e-05 8.23506e-09 4.53357e-08
4196 2 0.002 0.055413 -0.119958 -0.000755477 -3.52542e-08 -2.05563e-07 -4.30499e-08 3.97937e-06 1.87044e-09 1.19229e-08
4045 2 0.002 0.0485258 -0.119913 -0.00201918 -1.24026e-09 -9.03669e-08 -1.04284e-07 1.48313e-05 5.88261e-09 4.22668e-08
4047 2 0.002 0.0485293 -0.111925 -0.00138376 1.18932e-07 2.91911e-08 -1.90218e-08 6.93195e-06 6.14207e-09 5.44968e-08
4044 2 0.002 0.0485163 -0.123932 -0.00181492 -7.30893e-08 -1.28768e-07 -5.58143e-08 6.50119e-06 3.76553e-09 3.8171e-08
4120 2 0.002 0.0519644 -0.121942 -0.00132777 -7.20078e-08 -1.59599e-07 1.59658e-08 5.27989e-06 2.43049e-09 2.36049e-08
4121 2 0.002 0.0519705 -0.117934 -0.00130489 -8.0215e-09 -1.31638e-07 5.06968e-08 1.08193e-05 2.54474e-09 2.22904e-08
4122 2 0.002 0.0519744 -0.11394 -0.00100212 3.14873e-08 -1.04321e-07 2.69619e-07 5.4417e-06 2.7776e-09 3.28478e-08
4195 2 0.002 0.0554099 -0.123965 -0.000709792 -1.07502e-07 -2.07239e-07 6.23855e-08 8.06693e-06 1.2917e-09 1.63017e-08
4197 2 0.002 0.0554164 -0.115957 -0.000573019 6.71504e-08 -1.66659e-07 -1.73131e-07 4.02001e-06 1.99732e-09 1.48249e-08
4123 2 0.002 0.0519749 -0.109971 -0.000448092 1.82463e-07 2.03064e-08 -1.88002e-07 2.60364e-06 2.40446e-09 4.30347e-08
4198 2 0.002 0.0554186 -0.111974 -0.000138157 1.53024e-07 -1.04206e-07 -2.16872e-07 2.90087e-06 1.72525e-09 2.96677e-08
4270 2 0.002 0.0588631 -0.12198 -0.000262495 -4.15717e-08 -2.61593e-07 -2.23941e-07 6.22914e-06 1.82361e-09 8.15538e-09
4271 2 0.002 0.058866 -0.117974 -0.000197126 -3.46634e-08 -2.73379e-07 2.5151e-07 2.94617e-06 2.50919e-09 6.00501e-09
4629 2 0.002 0.0762045 -0.115982 -8.18073e-06 4.76509e-08 -1.49164e-07 -1.28027e-07 4.28075e-06 9.4758e-10 3.01724e-09
4766 2 0.002 0.0831488 -0.112007 -0.000665408 9.22061e-08 -4.32206e-08 3.57825e-07 2.93408e-06 1.08042e-08 2.53796e-08
4833 2 0.002 0.0866076 -0.110012 -0.000754971 5.38337e-08 2.25871e-09 -9.12578e-08 4.03013e-06 1.34197e-08 1.71177e-08
4832 2 0.002 0.0866425 -0.114051 -0.000987814 2.82638e-08 -1.82818e-08 6.78507e-08 8.09137e-06 2.48637e-08 4.15426e-07
66 1 0.015 0.0885318 -0.116096 -0.00198721 3.37026e-07 -6.58037e-07 -4.21234e-07 -2.52725e-06 0 4.04039e-07
4699 2 0.002 0.0796741 -0.109984 -0.000279541 6.54033e-08 -7.03813e-08 -2.59647e-07 6.75767e-06 1.10628e-09 1.15837e-08
4963 2 0.002 0.0935247 -0.109995 -0.000226419 1.38387e-08 3.96222e-09 4.32607e-08 4.32291e-06 2.65068e-09 3.2712e-09
4897 2 0.002 0.0900873 -0.11602 -0.000498667 -1.06035e-07 5.90492e-08 9.06163e-07 2.24146e-06 2.27183e-08 2.2094e-08
4765 2 0.002 0.0831456 -0.116003 -0.000551031 3.59914e-08 -5.33494e-08 3.72471e-08 2.87241e-06 1.31617e-08 7.40537e-09
4764 2 0.002 0.0831381 -0.119997 -0.000208161 1.03367e-08 -3.33219e-08 1.03731e-07 2.7541e-06 2.95905e-09 1.21872e-09
4698 2 0.002 0.0796737 -0.113987 -0.000317648 4.3826e-08 -9.29968e-08 -2.49444e-07 5.4935e-06 3.07561e-09 6.06358e-09
4898 2 0.002 0.0900779 -0.112012 -0.0005516 6.65615e-08 2.0749e-08 -3.86376e-07 5.9882e-06 1.86172e-08 6.30748e-09
4831 2 0.002 0.0866108 -0.118014 -0.000406694 -7.89602e-09 -7.52076e-08 -3.03179e-07 2.63664e-06 1.84833e-08 1.7831e-09
4697 2 0.002 0.0796717 -0.117989 -0.000205299 4.21589e-08 -7.43449e-08 1.70071e-07 3.91413e-06 1.78144e-09 2.73716e-09
4696 2 0.002 0.0796696 -0.121994 -5.70131e-05 9.67011e-09 -5.3561e-08 -1.1571e-07 2.76657e-06 5.73028e-10 1.17567e-09
878 2 0.002 -0.096944 -0.0959755 -0.0010614 9.3002e-08 1.87487e-07 3.76558e-07 1.02296e-05 2.04708e-09 1.93735e-08
754 2 0.002 -0.103886 -0.0959884 -0.000286837 3.05088e-08 1.60596e-07 3.97879e-07 6.62457e-06 1.30904e-09 8.73779e-09
753 2 0.002 -0.103895 -0.0999955 -0.000223326 2.24794e-08 9.07106e-08 2.39914e-07 6.3497e-06 2.3289e-09 1.0866e-08
814 2 0.002 -0.100433 -0.10199 -0.000437247 1.08265e-08 1.05479e-07 -8.07039e-08 4.13077e-06 2.93019e-09 2.13054e-08
816 2 0.002 -0.100408 -0.0939778 -0.000591099 -4.14614e-08 2.1417e-07 -3.97199e-07 4.25741e-06 1.32159e-09 1.32171e-08
876 2 0.002 -0.0969677 -0.103985 -0.000661959 1.87827e-08 9.9604e-08 -2.60064e-07 4.05184e-06 1.74087e-09 1.66427e-08
877 2 0.002 -0.0969561 -0.099983 -0.000945063 6.31854e-08 1.67487e-07 1.59321e-07 9.61657e-06 1.92419e-09 2.20497e-08
813 2 0.002 -0.100444 -0.105989 -0.000217478 4.00902e-08 6.71643e-08 2.11939e-07 0.00673615 2.61424e-09 1.06295e-08
875 2 0.002 -0.096982 -0.107989 -0.000319847 4.04516e-08 8.09926e-08 2.06333e-07 7.04998e-06 3.01102e-09 1.26895e-08
815 2 0.002 -0.100418 -0.0979843 -0.000607678 -2.65672e-08 1.5691e-07 -3.7455e-07 4.01047e-06 1.37629e-09 1.38197e-08
694 2 0.002 -0.107363 -0.098 -7.03959e-05 -4.15249e-09 8.19262e-08 -3.02788e-07 1.83715e-06 1.18214e-09 4.44385e-09
18 1 0.015 -0.0863843 -0.0954455 -0.00482117 1.77085e-06 -5.23318e-06 6.35355e-07 -6.00958e-06 0 1.35816e-06
1072 2 0.002 -0.0865382 -0.0939851 -0.0028832 1.90767e-07 1.24412e-07 -5.24653e-08 4.20038e-05 7.3475e-08 1.08135e-06
1206 2 0.002 -0.0796222 -0.0939943 -0.00140661 1.69076e-07 1.54682e-07 1.37046e-07 1.81933e-05 1.57391e-08 6.70839e-08
942 2 0.002 -0.0934742 -0.093969 -0.0015582 6.89798e-08 1.72427e-07 -1.03304e-07 1.36327e-05 6.8723e-09 3.2435e-08
1069 2 0.002 -0.0865724 -0.105996 -0.000932833 9.53833e-08 1.01583e-07 -3.07635e-07 9.78055e-06 4.00617e-09 2.28307e-08
1204 2 0.002 -0.0796497 -0.101994 -0.000808181 1.21184e-07 1.43879e-07 1.46269e-07 6.68307e-06 4.08071e-09 3.90909e-08
940 2 0.002 -0.0934932 -0.101986 -0.00119615 1.0404e-07 1.88515e-07 2.47522e-07 1.0357e-05 3.0496e-09 2.38255e-08
1004 2 0.002 -0.0900308 -0.103993 -0.0012228 9.19594e-08 1.44997e-07 -1.28015e-07 1.02835e-05 4.27994e-09 2.10844e-08
1136 2 0.002 -0.0831025 -0.104001 -0.00102793 1.07375e-07 1.61429e-07 1.06175e-07 6.09345e-06 5.05425e-09 3.33842e-08
1205 2 0.002 -0.0796295 -0.0979944 -0.00127834 2.72086e-07 1.09549e-07 -3.83933e-07 1.79888e-05 1.02289e-08 7.78433e-08
1137 2 0.002 -0.0830753 -0.100005 -0.00171003 2.27479e-07 1.12693e-07 -2.89428e-07 1.81095e-05 2.84543e-08 6.17278e-08
1138 2 0.002 -0.0830528 -0.0960009 -0.00233736 2.36342e-07 1.473e-07 -1.35674e-07 3.18482e-05 5.04724e-08 4.22657e-07
941 2 0.002 -0.0934827 -0.0979802 -0.0015151 7.8675e-08 1.82427e-07 -1.36634e-08 1.26621e-05 5.36822e-09 3.13408e-08
1005 2 0.002 -0.0900183 -0.0999957 -0.001803 1.07777e-07 1.81087e-07 -3.3209e-08 1.46127e-05 1.59098e-08 3.89048e-08
1006 2 0.002 -0.0900144 -0.0959815 -0.00217767 4.41053e-08 1.52988e-07 -5.21243e-07 1.87357e-05 4.74695e-08 5.88419e-08
1070 2 0.002 -0.0865507 -0.102003 -0.00163151 1.3946e-07 1.62582e-07 -5.24158e-08 1.46588e-05 1.14733e-08 4.54871e-08
1071 2 0.002 -0.0865386 -0.0980156 -0.00246973 1.67234e-07 1.82719e-07 2.03745e-07 2.61759e-05 4.93195e-08 2.38693e-07
939 2 0.002 -0.0935076 -0.105987 -0.000759448 4.06508e-08 1.1045e-07 -1.57734e-07 2.69042e-06 1.7168e-09 1.57112e-08
1003 2 0.002 -0.0900478 -0.107988 -0.000660102 5.71331e-08 1.69372e-07 3.07947e-07 2.40167e-06 2.60132e-09 1.15471e-08
1135 2 0.002 -0.083131 -0.108004 -0.000405549 5.07056e-08 1.54028e-07 2.21969e-07 2.28895e-06 2.09982e-09 2.58889e-08
1203 2 0.002 -0.0796764 -0.105997 -0.000281188 8.7137e-08 9.63791e-08 2.12783e-08 5.05838e-06 1.96932e-09 2.33055e-08
1274 2 0.002 -0.0762021 -0.0959914 -0.000535832 6.06052e-08 1.51302e-07 4.27729e-07 1.36719e-05 3.36861e-09 3.94385e-08
1273 2 0.002 -0.0762175 -0.0999872 -0.000286852 1.64694e-07 8.73983e-08 -9.89732e-08 6.55853e-06 2.24935e-09 4.3478e-08
3585 2 0.002 0.0277891 -0.108071 -8.66612e-05 -3.90819e-09 -1.71396e-07 3.43575e-07 4.10121e-06 2.41298e-09 1.59663e-08
3664 2 0.002 0.0312528 -0.106068 -2.05538e-05 -8.09824e-08 4.13359e-08 -3.15486e-07 3.04658e-06 2.47225e-09 2.21862e-08
3896 2 0.002 0.0416027 -0.107961 -0.00113197 9.10217e-08 9.67352e-08 1.05091e-07 1.48781e-05 5.07958e-09 6.63814e-08
3741 2 0.002 0.0347044 -0.108006 -0.000795805 1.97125e-08 1.59736e-09 2.03478e-08 4.32071e-06 2.29497e-09 4.74019e-08
3819 2 0.002 0.0381478 -0.106023 -0.000457305 2.88767e-08 8.36896e-08 8.30118e-08 3.25072e-06 2.18339e-09 6.33141e-08
3973 2 0.002 0.0450495 -0.105993 -0.000490567 1.22965e-07 1.77515e-07 -6.84904e-08 5.19014e-06 3.72784e-09 2.60696e-08
4048 2 0.002 0.0485199 -0.107972 -0.000627893 9.64352e-08 7.62323e-09 4.29332e-07 2.61628e-06 3.6316e-09 3.06882e-08
4634 2 0.002 0.0761896 -0.0959506 -0.000182618 1.11379e-07 5.05911e-08 -2.52356e-07 3.08138e-06 1.07311e-09 2.30883e-08
4702 2 0.002 0.0796514 -0.0979434 -0.000434504 9.75139e-08 7.58918e-08 -2.09039e-07 7.69004e-06 1.84216e-09 1.16647e-08
4769 2 0.002 0.0831181 -0.099948 -0.000586746 8.97833e-08 8.64896e-08 2.91375e-07 6.49473e-06 2.34642e-09 7.28218e-09
4836 2 0.002 0.0865865 -0.0979392 -0.000755664 3.68645e-08 8.21146e-08 -1.70932e-07 6.63483e-06 2.14833e-09 7.64812e-09
4902 2 0.002 0.0900571 -0.0959334 -0.000713238 -7.0463e-09 7.04987e-08 4.04071e-08 6.90372e-06 1.44477e-09 7.86268e-09
4770 2 0.002 0.0831152 -0.0959304 -0.000840157 7.53837e-08 1.11778e-07 -2.02191e-07 8.18377e-06 3.42618e-09 1.3297e-08
4837 2 0.002 0.0865887 -0.0939217 -0.00101943 4.25429e-08 1.29622e-07 3.12483e-08 8.52968e-06 3.77877e-09 1.20308e-08
4703 2 0.002 0.0796468 -0.093936 -0.000793309 1.67756e-07 1.96423e-07 4.75942e-07 4.91987e-06 3.09665e-09 2.37724e-08
4768 2 0.002 0.0831235 -0.103968 -0.000499 7.61536e-08 2.80313e-08 5.1892e-08 5.98704e-06 2.05024e-09 6.22266e-09
4701 2 0.002 0.0796578 -0.101957 -0.000244828 1.04257e-07 1.81237e-08 -5.52504e-08 6.62468e-06 1.52227e-09 6.69099e-09