ITEM: TIMESTEP
500000
ITEM: NUMBER OF ATOMS
5843
ITEM: BOX BOUNDS ff ff ff
-2.5000000000000000e-01 2.5000000000000000e-01
-2.5000000000000000e-01 2.5000000000000000e-01
-1.0000000000000001e-01 1.0000000000000001e-01
ITEM: ATOMS id type radius x y z fx fy fz v_pressure c_bendingE c_stretchingE
2545 2 0.002 -0.0173246 -0.141976 -0.000266804 3.31695e-14 1.71404e-13 2.05245e-13 3.05266e-06 2.58397e-09 9.37608e-09
2465 2 0.002 -0.0207817 -0.143989 -1.20065e-05 3.98502e-14 5.05396e-14 -7.24715e-14 3.13113e-06 2.34598e-09 1.74167e-09
2703 2 0.002 -0.0103959 -0.145981 -0.000198902 1.35556e-14 1.47756e-13 2.73112e-13 6.54893e-06 2.24855e-09 1.05919e-08
2862 2 0.002 -0.00347462 -0.145981 -0.000198571 2.71403e-15 1.18765e-13 8.74631e-14 3.28784e-06 2.51226e-09 1.07948e-08
2863 2 0.002 -0.00349053 -0.141967 -0.000597638 2.67196e-14 2.48373e-13 6.82439e-14 2.65085e-06 1.21856e-09 1.69814e-08
2783 2 0.002 -0.00694343 -0.143975 -0.000416468 -1.20353e-14 1.81413e-13 -1.10846e-13 2.70226e-06 2.54908e-09 2.00502e-08
2704 2 0.002 -0.0104109 -0.141964 -0.000609722 -1.60562e-14 2.06397e-13 -3.18941e-13 7.8288e-06 1.34045e-09 1.64135e-08
2624 2 0.002 -0.0138629 -0.143978 -0.000284443 1.07007e-14 1.4966e-13 1.50966e-13 3.42711e-06 2.53701e-09 1.19828e-08
2942 2 0.002 -1.92474e-05 -0.143977 -0.000247144 4.31244e-14 1.62443e-13 3.37157e-14 2.3193e-06 2.77757e-09 1.23497e-08
3022 2 0.002 0.00344456 -0.141981 -0.000133611 8.1793e-14 2.26246e-13 6.68327e-13 3.15181e-06 3.35537e-09 3.64617e-08
3655 2 0.002 0.03119 -0.14198 -0.000252253 2.3931e-13 2.99636e-13 5.9448e-14 6.24349e-06 1.97724e-09 8.66982e-09
3340 2 0.002 0.0173055 -0.141992 -0.000100243 4.15331e-13 1.58516e-13 -4.2966e-13 6.07386e-06 1.19225e-09 6.66793e-09
3498 2 0.002 0.0242553 -0.141984 -0.000256188 4.06648e-13 2.88773e-13 1.00555e-13 2.7848e-06 9.40794e-10 6.10595e-09
3419 2 0.002 0.0207846 -0.143987 -9.5063e-05 2.53545e-13 1.46769e-13 1.16586e-13 4.21458e-06 8.06258e-10 2.78498e-09
3576 2 0.002 0.0277183 -0.143985 -0.000138457 1.72043e-13 2.02385e-13 1.98632e-13 4.98072e-06 1.13575e-09 4.99183e-09
63 1 0.015 -0.0572089 -0.134807 -0.00109052 1.47238e-12 1.03543e-12 4.06856e-13 -1.94828e-06 0 4.20581e-07
1622 2 0.002 -0.0588966 -0.133986 -8.41756e-05 -9.31932e-14 2.04393e-13 -2.91122e-13 1.9238e-06 6.30887e-09 1.18133e-08
1697 2 0.002 -0.0554458 -0.131989 -9.92056e-05 -1.78068e-13 2.75686e-13 2.67688e-13 7.49749e-06 1.11449e-08 4.42173e-07
1696 2 0.002 -0.0554255 -0.135992 -6.53102e-05 -6.61761e-14 9.89344e-14 -1.28237e-13 2.68286e-06 6.30935e-09 1.28835e-09
2547 2 0.002 -0.0173606 -0.133942 -0.000845434 -8.77527e-14 4.06742e-13 1.58491e-13 9.53605e-06 2.10076e-09 1.74772e-08
2468 2 0.002 -0.0208091 -0.131951 -0.00038446 -1.0919e-13 2.64961e-13 2.68397e-14 4.44241e-06 1.76946e-09 1.55497e-08
2548 2 0.002 -0.0173765 -0.129924 -0.00104012 -2.08354e-13 4.53835e-13 -6.95522e-14 1.17477e-05 4.11051e-09 2.58413e-08
2549 2 0.002 -0.0173882 -0.125912 -0.00102561 -3.20137e-13 5.60788e-13 -3.76395e-13 1.29557e-05 5.92401e-09 3.04247e-08
2546 2 0.002 -0.0173424 -0.137959 -0.000565441 -3.18742e-14 2.69128e-13 -1.02383e-13 3.81864e-06 1.19433e-09 1.16966e-08
2467 2 0.002 -0.0208017 -0.135967 -0.000263344 -5.1994e-14 1.84267e-13 -1.47312e-13 3.80928e-06 1.11821e-09 1.34092e-08
2469 2 0.002 -0.0208154 -0.127939 -0.000373901 -1.03368e-13 2.73451e-13 3.69415e-13 9.86367e-06 1.71918e-09 1.70442e-08
2466 2 0.002 -0.0207921 -0.139979 -0.00010438 2.89809e-14 1.50093e-13 3.68086e-14 5.82368e-06 9.85333e-10 7.69687e-09
85 1 0.015 -0.00911124 -0.126133 -0.00488718 -6.18121e-13 -6.60955e-12 -1.39485e-12 -5.78229e-06 0 1.21634e-06
2708 2 0.002 -0.0105469 -0.12587 -0.00277563 -2.48529e-13 5.98973e-13 1.66991e-13 3.50151e-05 5.95129e-08 6.45727e-07
2867 2 0.002 -0.00356408 -0.125908 -0.00220734 -2.39466e-13 3.55726e-13 8.5487e-14 1.90051e-05 3.40422e-08 5.91483e-08
2627 2 0.002 -0.0139277 -0.131923 -0.00151206 -1.96505e-13 4.9783e-13 -2.09661e-13 1.28487e-05 6.02085e-09 2.89194e-08
2628 2 0.002 -0.0139568 -0.127898 -0.00183196 -2.07854e-13 5.92221e-13 1.51009e-13 1.75055e-05 2.54915e-08 5.64369e-08
2706 2 0.002 -0.0104594 -0.133932 -0.00164847 -1.48332e-13 4.60216e-13 -2.88902e-13 1.30563e-05 5.35332e-09 3.64492e-08
2707 2 0.002 -0.0104988 -0.12991 -0.00224162 -2.2463e-13 5.2779e-13 -1.45576e-13 1.88648e-05 4.34507e-08 6.17279e-08
2786 2 0.002 -0.00701185 -0.131929 -0.00210319 -1.65968e-13 4.27377e-13 -3.16334e-13 8.49307e-06 1.83318e-08 6.75644e-08
2787 2 0.002 -0.00704581 -0.127903 -0.00280128 -2.42705e-13 4.75568e-13 1.39749e-13 3.13378e-05 5.00488e-08 4.68308e-07
2866 2 0.002 -0.00355493 -0.129929 -0.00211593 -1.25639e-13 3.30325e-13 -1.68871e-13 8.60388e-06 1.50504e-08 7.20766e-08
2946 2 0.002 -8.59043e-05 -0.12794 -0.00172236 -2.95998e-14 1.57055e-13 -6.54949e-13 1.24966e-05 5.71845e-09 3.08387e-08
2784 2 0.002 -0.00696107 -0.139959 -0.000911069 -2.46995e-14 3.10049e-13 -7.2875e-14 4.63941e-06 1.34635e-09 2.44966e-08
2625 2 0.002 -0.0138769 -0.139959 -0.000671794 -3.44982e-14 2.59275e-13 -3.4591e-13 7.75467e-06 1.42274e-09 1.45005e-08
2705 2 0.002 -0.0104313 -0.137949 -0.00110242 -3.95098e-14 4.55913e-13 5.03714e-13 9.73284e-06 1.9537e-09 2.37982e-08
2785 2 0.002 -0.00698343 -0.135945 -0.00146826 -8.83529e-14 3.7495e-13 -3.07525e-13 5.96557e-06 3.19999e-09 3.81406e-08
2864 2 0.002 -0.00350795 -0.137958 -0.00109421 -1.24785e-14 3.5102e-13 1.62106e-13 2.52491e-06 1.34042e-09 2.91383e-08
2626 2 0.002 -0.0138997 -0.135942 -0.00109441 -7.35628e-14 4.20358e-13 1.01812e-13 9.81902e-06 1.94778e-09 1.94317e-08
2865 2 0.002 -0.00353088 -0.133948 -0.00163328 -7.27181e-14 3.73298e-13 1.02903e-13 4.2315e-06 4.61508e-09 4.31733e-08
2945 2 0.002 -7.59713e-05 -0.131953 -0.00152351 -5.65257e-14 2.48527e-13 3.79581e-13 5.88265e-06 3.46962e-09 3.91752e-08
2944 2 0.002 -5.50892e-05 -0.135963 -0.00110268 6.60358e-14 2.56029e-13 -1.98219e-15 2.5652e-06 1.19216e-09 3.34486e-08
2943 2 0.002 -3.24907e-05 -0.139969 -0.000637002 1.25363e-13 1.59533e-13 -5.1764e-13 3.04307e-06 8.6388e-10 2.64038e-08
3023 2 0.002 0.0034193 -0.137976 -0.000567217 2.14879e-13 1.24547e-13 -3.56356e-13 3.06538e-06 1.79239e-09 2.94877e-08
3103 2 0.002 0.00687815 -0.135989 -0.000556436 3.38012e-13 1.00226e-13 -2.87297e-14 4.24091e-06 1.53751e-09 1.97581e-08
3104 2 0.002 0.00687079 -0.131985 -0.000915564 2.57841e-13 -2.10871e-15 5.21653e-14 3.70928e-06 2.19144e-09 1.27088e-08
3024 2 0.002 0.00340128 -0.133973 -0.00100543 1.58592e-13 1.2668e-13 6.45387e-14 2.30035e-06 1.64725e-09 2.60613e-08
3184 2 0.002 0.0103504 -0.129992 -0.000869714 3.19833e-13 -4.39468e-14 7.25214e-14 0.0058622 2.4505e-09 6.28397e-09
3263 2 0.002 0.0138308 -0.131996 -0.000753213 5.49688e-13 9.20068e-14 -1.84511e-13 5.71228e-06 1.45035e-09 5.71334e-09
3183 2 0.002 0.0103501 -0.133995 -0.00063057 4.80349e-13 6.37125e-14 1.28371e-13 6.82174e-06 1.57968e-09 8.48577e-09
3025 2 0.002 0.0033919 -0.129966 -0.00128465 3.49924e-14 4.79482e-14 1.94984e-13 9.03967e-06 2.8803e-09 1.91781e-08
3026 2 0.002 0.00339128 -0.125958 -0.00127902 -1.28001e-13 -4.97777e-14 3.12422e-13 9.0512e-06 3.16628e-09 1.50674e-08
3105 2 0.002 0.00687012 -0.127978 -0.0010462 9.2062e-14 -1.14029e-13 6.15979e-14 6.81702e-06 2.99408e-09 8.96877e-09
3264 2 0.002 0.0138353 -0.127993 -0.000875436 3.27602e-13 1.6405e-14 2.3187e-13 0.00504728 2.65425e-09 5.11448e-09
3185 2 0.002 0.0103552 -0.125988 -0.000853527 9.46021e-14 -1.64296e-13 -1.00889e-13 5.42518e-06 3.31275e-09 5.74515e-09
3102 2 0.002 0.00689243 -0.139994 -6.34904e-05 2.82121e-13 1.84504e-13 4.12975e-13 5.2205e-06 1.16315e-08 3.46582e-08
3182 2 0.002 0.0103546 -0.137997 -0.000225422 4.78288e-13 9.70122e-14 -2.00772e-13 8.21169e-06 2.02204e-09 1.38566e-08
3262 2 0.002 0.013829 -0.135995 -0.000450447 6.26309e-13 2.32067e-13 5.15563e-13 6.49613e-06 8.583e-10 6.82224e-09
3261 2 0.002 0.0138308 -0.139994 -7.38005e-05 4.9881e-13 8.87343e-14 -7.50861e-13 7.10213e-06 4.04368e-09 8.27962e-09
3501 2 0.002 0.0242741 -0.129977 -0.00123507 5.15e-13 8.43065e-13 -3.47299e-13 0.00686351 1.28322e-09 1.06715e-08
3579 2 0.002 0.0277466 -0.131969 -0.00125037 5.33829e-13 9.58185e-13 -4.83156e-13 7.72129e-06 8.56499e-10 1.26021e-08
3423 2 0.002 0.0207983 -0.127985 -0.00112242 4.26448e-13 5.73183e-13 5.7802e-14 0.00583817 1.93285e-09 8.10378e-09
3421 2 0.002 0.0207869 -0.135985 -0.000651681 7.32999e-13 4.44908e-13 -4.46643e-13 6.09466e-06 2.94298e-10 7.51689e-09
3499 2 0.002 0.0242607 -0.13798 -0.000587534 6.58538e-13 4.99249e-13 -3.36885e-13 6.2343e-06 2.33995e-10 7.30579e-09
3577 2 0.002 0.0277292 -0.139976 -0.000456796 4.6067e-13 4.61265e-13 -1.86016e-13 6.07677e-06 6.11456e-10 7.02328e-09
3343 2 0.002 0.0173148 -0.129993 -0.000913922 5.33814e-13 2.95223e-13 8.1185e-14 0.00541944 1.59606e-09 6.30827e-09
3344 2 0.002 0.0173211 -0.125991 -0.000941542 2.23544e-13 2.167e-13 -1.61768e-13 2.50459e-06 2.83936e-09 5.89503e-09
3422 2 0.002 0.0207927 -0.131987 -0.000944427 6.98838e-13 5.76993e-13 2.68922e-13 0.00606985 8.20708e-10 8.15593e-09
3500 2 0.002 0.0242678 -0.133979 -0.000936133 6.99088e-13 7.60932e-13 2.29415e-13 0.00666373 4.76763e-10 9.21338e-09
3578 2 0.002 0.0277387 -0.135972 -0.00085228 6.1778e-13 8.01328e-13 3.10048e-13 7.02999e-06 4.70553e-10 9.62409e-09
3502 2 0.002 0.0242791 -0.125972 -0.00139927 2.24223e-13 8.6593e-13 -2.54509e-13 0.00704712 2.50066e-09 1.18134e-08
3580 2 0.002 0.0277524 -0.127962 -0.00158427 3.05511e-13 1.15145e-12 7.00843e-14 8.39727e-06 2.03002e-09 1.56988e-08
3342 2 0.002 0.01731 -0.133992 -0.000688987 6.9341e-13 2.74162e-13 -4.51847e-13 5.9219e-06 6.26575e-10 6.86384e-09
3656 2 0.002 0.0312035 -0.13797 -0.000668409 4.21741e-13 6.47982e-13 2.01809e-14 7.43954e-06 7.04838e-10 1.1517e-08
3657 2 0.002 0.0312135 -0.133964 -0.0011428 4.47539e-13 9.22649e-13 -3.84188e-13 8.38928e-06 6.08203e-10 1.52257e-08
3658 2 0.002 0.0312214 -0.129956 -0.00161155 3.21447e-13 1.20596e-12 1.57562e-13 3.17495e-06 1.28465e-09 1.98884e-08
3341 2 0.002 0.0173065 -0.13799 -0.000375095 6.96204e-13 3.14765e-13 4.26312e-13 6.1698e-06 6.51424e-10 7.02215e-09
3420 2 0.002 0.0207826 -0.139984 -0.000340008 6.08503e-13 3.66501e-13 3.16037e-13 5.6978e-06 4.37607e-10 5.83972e-09
3659 2 0.002 0.031226 -0.125942 -0.0020151 1.88012e-14 1.29037e-12 -4.53198e-13 5.52032e-06 3.41347e-09 2.61742e-08
3734 2 0.002 0.0346723 -0.135965 -0.000902429 2.92204e-13 7.29454e-13 -1.49632e-13 9.03824e-06 6.81943e-10 2.14929e-08
3889 2 0.002 0.0415836 -0.135966 -0.000794582 -3.35043e-14 4.76199e-13 -5.90125e-14 4.86862e-06 1.3147e-09 2.68215e-08
3966 2 0.002 0.0450436 -0.133966 -0.000930415 -1.68889e-13 4.40484e-13 7.64554e-15 3.37668e-06 9.36166e-10 2.9987e-08
3733 2 0.002 0.03466 -0.139976 -0.000371888 2.16075e-13 3.9154e-13 2.24752e-13 8.35748e-06 3.77732e-09 1.78905e-08
3811 2 0.002 0.0381216 -0.137974 -0.000561712 9.86962e-14 4.22135e-13 2.59839e-14 1.01862e-05 3.92927e-09 3.4752e-08
3888 2 0.002 0.0415709 -0.139979 -0.000263377 -2.60301e-14 2.19496e-13 2.11115e-13 8.45603e-06 3.62028e-09 1.71955e-08
3965 2 0.002 0.0450369 -0.137979 -0.00038923 -6.69468e-14 2.05004e-13 1.48881e-14 4.59938e-06 4.08168e-09 2.18493e-08
3891 2 0.002 0.0416078 -0.127936 -0.0020556 -2.24245e-13 9.36552e-13 -7.37248e-14 7.07415e-06 3.12357e-09 5.52179e-08
3736 2 0.002 0.0346909 -0.12794 -0.00202453 5.06308e-14 1.25764e-12 -1.65351e-13 6.12716e-06 2.09749e-09 3.47059e-08
3813 2 0.002 0.0381467 -0.129945 -0.00180133 -3.00675e-14 1.07275e-12 9.70952e-14 6.24637e-06 1.69379e-09 4.35637e-08
3890 2 0.002 0.0415954 -0.131954 -0.00140768 -1.14071e-13 7.42644e-13 -7.0635e-14 3.80109e-06 1.17983e-09 3.83991e-08
3967 2 0.002 0.0450524 -0.129951 -0.00151116 -2.55967e-13 6.11554e-13 -1.17395e-13 2.88746e-06 1.44671e-09 3.74126e-08
3735 2 0.002 0.0346828 -0.131955 -0.00146688 2.22374e-13 1.05739e-12 -1.09803e-13 3.42784e-06 8.05056e-10 2.66592e-08
3812 2 0.002 0.0381352 -0.13396 -0.00117356 9.16577e-14 7.31522e-13 -3.08808e-13 1.0649e-05 6.14681e-10 3.43288e-08
3968 2 0.002 0.045066 -0.125933 -0.00208896 -3.33993e-13 7.15699e-13 4.55704e-14 4.74385e-06 4.28593e-09 4.80302e-08
3814 2 0.002 0.0381565 -0.125923 -0.00245067 -1.73931e-13 1.14113e-12 -3.73346e-13 1.60708e-05 5.47121e-09 6.31773e-08
4042 2 0.002 0.0484972 -0.131966 -0.000938443 -2.61396e-13 3.08109e-13 -2.33953e-13 2.37837e-06 1.41852e-09 2.62982e-08
4041 2 0.002 0.0484961 -0.135981 -0.000428955 -1.38251e-13 1.80538e-13 1.23703e-13 2.38732e-06 4.61166e-09 2.62317e-08
4043 2 0.002 0.0485062 -0.127951 -0.00142053 -3.72815e-13 4.30678e-13 1.48524e-13 2.71313e-06 1.75778e-09 2.95616e-08
4119 2 0.002 0.0519587 -0.125954 -0.0011338 -3.67994e-13 2.10791e-13 1.05761e-13 3.23775e-06 1.66105e-09 2.29894e-08
4118 2 0.002 0.0519518 -0.129966 -0.000811308 -3.20443e-13 1.94816e-13 -7.01838e-14 4.19479e-06 1.41533e-09 1.74693e-08
4194 2 0.002 0.0554088 -0.127972 -0.000522706 -3.03701e-13 7.25587e-14 -4.53888e-14 7.66367e-06 9.75031e-10 1.68594e-08
4117 2 0.002 0.051948 -0.13398 -0.000423049 -2.30743e-13 1.39326e-13 1.62958e-13 2.58767e-06 3.74505e-09 1.77336e-08
4192 2 0.002 0.0554153 -0.135987 -0.00011651 -1.118e-13 6.5657e-14 1.64886e-14 2.25383e-06 3.32471e-09 4.64532e-09
4193 2 0.002 0.0554075 -0.131976 -0.000301012 -2.36752e-13 6.70561e-14 -9.36506e-14 2.94951e-06 2.62193e-09 8.29346e-09
4269 2 0.002 0.0588624 -0.125986 -0.000144144 -2.1748e-13 -8.14931e-15 -8.08344e-14 6.91044e-06 1.89756e-09 1.49005e-08
938 2 0.002 -0.0935228 -0.109989 -0.000321454 -1.91177e-13 8.50207e-14 2.37032e-13 1.59163e-06 3.40098e-09 1.07928e-08
1068 2 0.002 -0.0865942 -0.109994 -0.000341474 -3.706e-13 1.25039e-13 1.54346e-14 2.21792e-06 2.58019e-09 1.36559e-08
1002 2 0.002 -0.0900636 -0.111987 -0.000199276 -2.01982e-13 9.60136e-14 3.33891e-13 2.11623e-06 3.27791e-09 4.8314e-09
2470 2 0.002 -0.0208148 -0.123937 -0.000169723 -2.28803e-13 3.51356e-13 -8.15746e-14 5.36035e-06 1.33712e-09 2.3577e-08
2550 2 0.002 -0.0173774 -0.121915 -0.000694237 -2.53281e-13 5.73076e-13 -2.38543e-14 1.30993e-05 3.64406e-09 3.77915e-08
2551 2 0.002 -0.017359 -0.117926 -0.000168152 -2.72777e-13 6.45233e-13 -4.01407e-13 1.13185e-05 2.04635e-09 2.54415e-08
2630 2 0.002 -0.0139307 -0.119897 -0.00103896 -2.42905e-13 6.81784e-13 5.88068e-14 1.44302e-05 6.33477e-09 4.1986e-08
2788 2 0.002 -0.00704633 -0.123864 -0.00259147 -2.68426e-13 5.36129e-13 -1.00805e-13 3.16042e-05 4.83367e-08 4.54042e-07
2789 2 0.002 -0.00701365 -0.119894 -0.00161094 -2.08853e-13 6.79158e-13 -5.62789e-13 1.78894e-05 1.53887e-08 6.87913e-08
2868 2 0.002 -0.00355616 -0.121908 -0.00176102 -3.17863e-13 2.63224e-13 3.41216e-13 1.76054e-05 1.29339e-08 6.47596e-08
2710 2 0.002 -0.0104627 -0.117899 -0.00103629 -1.42856e-13 5.7171e-13 5.52152e-13 1.46511e-05 5.34147e-09 4.83396e-08
2629 2 0.002 -0.0139588 -0.123887 -0.00167849 -1.7314e-13 6.10513e-13 4.62365e-13 1.85195e-05 2.39881e-08 7.38067e-08
2709 2 0.002 -0.0105011 -0.121874 -0.00192442 -2.0319e-13 5.60969e-13 5.19852e-13 2.03532e-05 4.11399e-08 7.93908e-08
2947 2 0.002 -8.48877e-05 -0.123934 -0.0015472 -2.86937e-13 6.76919e-14 4.12211e-13 1.28283e-05 5.02e-09 3.09092e-08
2869 2 0.002 -0.00352948 -0.117936 -0.000994255 -1.84768e-13 3.07163e-13 1.25945e-13 1.33723e-05 3.80303e-09 3.5219e-08
2948 2 0.002 -7.03756e-05 -0.119953 -0.00102317 -2.02784e-13 9.68294e-14 -1.9929e-13 1.24437e-05 2.74371e-09 3.58106e-08
2790 2 0.002 -0.00698514 -0.115926 -0.000713442 -1.10865e-13 5.36574e-13 -3.88294e-14 1.30543e-05 3.29029e-09 3.84335e-08
2631 2 0.002 -0.0139005 -0.115914 -0.000316499 -1.94576e-13 7.22258e-13 -1.68743e-13 1.18636e-05 2.1448e-09 3.09711e-08
2711 2 0.002 -0.0104331 -0.113922 -0.000209285 -4.74815e-14 5.53575e-13 3.38912e-13 5.93333e-06 2.06447e-09 3.64319e-08
2870 2 0.002 -0.00350442 -0.113968 -0.000218724 -1.45603e-16 1.68797e-13 6.1588e-13 1.0805e-05 1.67596e-09 2.10176e-08
2949 2 0.002 -4.42547e-05 -0.115987 -0.00033266 -7.21181e-14 3.69944e-14 -1.13041e-13 5.49742e-06 1.22033e-09 2.55691e-08
3107 2 0.002 0.00688944 -0.120004 -0.000381677 -2.26929e-13 -3.95011e-13 4.60313e-13 7.99699e-06 2.0503e-09 1.57591e-08
3266 2 0.002 0.0138601 -0.120023 -0.000246531 -1.84535e-13 -2.51005e-13 1.22239e-13 5.96476e-06 4.41607e-09 6.85687e-09
3186 2 0.002 0.010366 -0.122 -0.000518392 -1.20157e-13 -2.53865e-13 -2.00486e-13 5.9265e-06 3.37784e-09 7.39024e-09
3027 2 0.002 0.00339953 -0.121966 -0.000940549 -1.25765e-13 -4.89793e-14 -6.07936e-13 4.78702e-06 2.41193e-09 2.03456e-08
3106 2 0.002 0.00687586 -0.123978 -0.000871415 -1.04694e-13 -2.46296e-13 1.60816e-13 3.4744e-06 2.96824e-09 9.59927e-09
3265 2 0.002 0.0138437 -0.123995 -0.000724749 4.69981e-14 -1.26456e-13 2.53436e-13 4.92931e-06 3.70704e-09 5.18729e-09
3028 2 0.002 0.00341847 -0.118001 -0.000342036 -1.61514e-13 -1.62441e-13 -1.98287e-13 5.08581e-06 1.34533e-09 2.7072e-08
3583 2 0.002 0.0277685 -0.115972 -0.0013503 -4.96685e-13 8.68094e-13 -2.34666e-13 2.75237e-06 2.41719e-09 3.37184e-08
3584 2 0.002 0.0277812 -0.11202 -0.000768192 -5.61738e-13 6.42114e-13 -5.08162e-13 3.48646e-06 1.83811e-09 3.20567e-08
3345 2 0.002 0.0173326 -0.122001 -0.0006848 -7.88717e-14 9.05992e-14 8.86155e-14 1.74295e-06 3.28969e-09 6.71799e-09
3424 2 0.002 0.0208051 -0.123984 -0.00108745 8.87492e-14 5.17372e-13 6.68951e-14 2.89154e-06 2.78901e-09 8.41977e-09
3426 2 0.002 0.0208397 -0.116047 -0.000215438 -4.55143e-13 2.82727e-13 -2.21159e-13 2.65832e-06 2.21849e-09 2.3592e-08
3503 2 0.002 0.0242849 -0.12197 -0.0013394 -6.46805e-14 7.98328e-13 4.43924e-13 3.73663e-06 3.00262e-09 1.41677e-08
3504 2 0.002 0.0242965 -0.11799 -0.00101219 -2.20632e-13 5.67606e-13 1.01053e-12 2.10937e-06 2.15696e-09 2.23169e-08
3505 2 0.002 0.0243134 -0.114037 -0.000482364 -3.98938e-13 3.90598e-13 4.87023e-13 3.04012e-06 1.15347e-09 3.0442e-08
3581 2 0.002 0.0277559 -0.123952 -0.0017695 6.21946e-14 1.17284e-12 4.61419e-13 9.29484e-06 3.77204e-09 1.994e-08
3582 2 0.002 0.0277587 -0.119949 -0.00170879 -4.11183e-13 1.1171e-12 -8.63182e-13 5.11113e-06 3.77936e-09 2.49985e-08
3425 2 0.002 0.0208182 -0.12 -0.000774135 -2.22583e-13 4.02517e-13 -5.63791e-14 2.14833e-06 2.5435e-09 1.22981e-08
3346 2 0.002 0.0173547 -0.118044 -0.000116455 -3.00828e-13 -4.49964e-14 6.87655e-14 2.21762e-06 3.75053e-09 1.14668e-08
3660 2 0.002 0.0312276 -0.121925 -0.00225905 -2.18124e-13 1.26312e-12 -2.03263e-13 1.32722e-05 7.10275e-09 3.9425e-08
3661 2 0.002 0.0312266 -0.11792 -0.00218027 -2.20091e-13 1.06901e-12 9.54911e-13 1.45186e-05 8.98825e-09 4.41246e-08
3662 2 0.002 0.0312384 -0.113951 -0.00167871 -3.05267e-13 7.6752e-13 7.75732e-13 1.45294e-05 4.91054e-09 5.30409e-08
3663 2 0.002 0.0312465 -0.110005 -0.000910016 -3.55023e-13 5.20057e-13 7.91474e-14 5.88641e-06 2.85306e-09 3.25549e-08
109 1 0.015 0.0403167 -0.117524 -0.00629208 -2.04138e-12 -4.47872e-12 -6.83088e-13 -6.65482e-06 0 2.16223e-06
3818 2 0.002 0.0381572 -0.109938 -0.00162244 -1.46126e-13 2.77654e-13 6.00609e-13 8.80488e-06 7.46193e-09 8.03508e-08
3894 2 0.002 0.0416524 -0.115814 -0.00357962 -2.99674e-13 6.79428e-13 2.13074e-14 4.70783e-05 7.64032e-08 1.21766e-06
3895 2 0.002 0.0416237 -0.111878 -0.00232358 -1.94663e-13 1.38929e-13 9.52866e-13 1.14955e-05 3.35276e-08 1.30173e-07
3971 2 0.002 0.0450887 -0.113872 -0.00240449 -2.21647e-13 2.87607e-13 2.52041e-13 1.08593e-05 2.72338e-08 1.09512e-07
3972 2 0.002 0.0450713 -0.109922 -0.00148835 -9.86534e-14 -4.743e-14 4.58372e-13 7.38594e-06 9.44561e-09 4.89766e-08
3740 2 0.002 0.0347026 -0.111935 -0.00181404 -3.00852e-13 6.94415e-13 2.51286e-13 8.57094e-06 7.64324e-09 6.47801e-08
3737 2 0.002 0.0346944 -0.123919 -0.00254171 -1.78859e-13 1.2867e-12 -3.23763e-13 1.54635e-05 8.64083e-09 4.82698e-08
3739 2 0.002 0.0346946 -0.115887 -0.00266629 -2.31806e-13 9.34435e-13 9.77764e-13 2.24534e-05 3.40128e-08 1.10965e-07
3816 2 0.002 0.0381543 -0.117839 -0.00375528 -3.76444e-13 1.02033e-12 3.65059e-15 4.66195e-05 7.72306e-08 1.18109e-06
3817 2 0.002 0.0381634 -0.113867 -0.0027674 -2.66482e-13 6.43893e-13 5.20472e-13 2.61425e-05 6.45534e-08 1.27667e-07
3969 2 0.002 0.0450818 -0.121906 -0.00260152 -3.78232e-13 6.78845e-13 1.50808e-13 1.89211e-05 1.49469e-08 7.31653e-08
3738 2 0.002 0.0346921 -0.119888 -0.00290854 -1.8664e-13 1.24303e-12 6.79269e-13 2.12401e-05 2.82101e-08 9.71295e-08
3815 2 0.002 0.0381616 -0.121893 -0.00312756 -2.93129e-13 1.16286e-12 -1.95036e-13 2.32974e-05 5.06119e-08 1.04457e-07
3892 2 0.002 0.0416241 -0.123913 -0.0027502 -3.07417e-13 9.34061e-13 -2.16668e-13 1.94936e-05 1.48257e-08 8.8376e-08
3893 2 0.002 0.0416498 -0.119881 -0.00350467 -3.52209e-13 8.80154e-13 9.10206e-14 3.34859e-05 6.39362e-08 3.34257e-07
3970 2 0.002 0.0450941 -0.117873 -0.0028014 -4.27312e-13 5.18919e-13 5.84571e-13 2.28475e-05 5.03292e-08 8.79079e-08
4046 2 0.002 0.0485333 -0.115905 -0.00189632 -3.22683e-13 1.44745e-13 4.90363e-13 1.50913e-05 8.23719e-09 4.53513e-08
4196 2 0.002 0.055413 -0.119958 -0.000756921 -3.55125e-13 -9.26669e-14 8.00061e-13 3.98024e-06 1.87023e-09 1.19265e-08
4045 2 0.002 0.0485259 -0.119913 -0.00202089 -3.43126e-13 3.24379e-13 9.39504e-14 1.48341e-05 5.88288e-09 4.22708e-08
4047 2 0.002 0.0485294 -0.111925 -0.00138615 -3.83173e-14 3.42675e-14 -3.4488e-13 6.9348e-06 6.14296e-09 5.45164e-08
4044 2 0.002 0.0485163 -0.123932 -0.00181624 -3.09899e-13 3.96119e-13 -3.53962e-13 6.50155e-06 3.76586e-09 3.81698e-08
4120 2 0.002 0.0519644 -0.121942 -0.00132913 -3.30489e-13 1.60577e-13 6.60585e-14 5.28037e-06 2.43092e-09 2.36065e-08
4121 2 0.002 0.0519705 -0.117934 -0.00130661 -8.97452e-14 3.92883e-14 -7.9946e-13 1.0822e-05 2.54424e-09 2.22965e-08
4122 2 0.002 0.0519745 -0.11394 -0.00100412 -1.45386e-13 -1.32015e-13 -3.85247e-14 5.44377e-06 2.77674e-09 3.2856e-08
4195 2 0.002 0.0554098 -0.123966 -0.000710835 -2.72592e-13 2.46076e-14 -2.06236e-13 8.06659e-06 1.29111e-09 1.63034e-08
4197 2 0.002 0.0554164 -0.115957 -0.000574885 -1.91321e-13 -1.99665e-13 1.39729e-13 4.02185e-06 1.998e-09 1.48312e-08
4123 2 0.002 0.051975 -0.109971 -0.000450604 -1.39664e-13 -3.33837e-13 3.38172e-13 2.605e-06 2.40041e-09 4.30388e-08
4198 2 0.002 0.0554186 -0.111974 -0.000140394 -1.8447e-13 -3.32705e-13 2.10891e-13 2.90245e-06 1.72763e-09 2.96709e-08
4270 2 0.002 0.0588631 -0.12198 -0.000263715 -1.75886e-13 -7.68176e-14 -2.24356e-13 6.22924e-06 1.82319e-09 8.15645e-09
4271 2 0.002 0.058866 -0.117974 -0.000198519 -9.4458e-14 -1.77995e-13 -4.99054e-13 2.94711e-06 2.50905e-09 6.00897e-09
4629 2 0.002 0.0762045 -0.115982 -9.09078e-06 8.8688e-14 4.48394e-13 4.01786e-14 4.27941e-06 9.46906e-10 3.016e-09
4766 2 0.002 0.0831489 -0.112007 -0.000666072 8.8947e-14 6.26977e-13 -4.6233e-13 2.93352e-06 1.08114e-08 2.53638e-08
4833 2 0.002 0.0866076 -0.110012 -0.000755722 2.16207e-13 6.18079e-13 3.63708e-14 4.02986e-06 1.34194e-08 1.71189e-08
4832 2 0.002 0.0866426 -0.114051 -0.000988258 6.89594e-14 4.57245e-13 4.07535e-13 8.09091e-06 2.48647e-08 4.15527e-07
66 1 0.015 0.088532 -0.116097 -0.00198747 -2.36331e-12 -9.56188e-13 -4.30233e-13 -2.52701e-06 0 4.04184e-07
4699 2 0.002 0.0796742 -0.109984 -0.000280784 8.24089e-14 6.51681e-13 1.27583e-13 6.75808e-06 1.10859e-09 1.15742e-08
4963 2 0.002 0.0935247 -0.109995 -0.000226636 1.87765e-13 2.80722e-13 -6.65416e-14 4.32104e-06 2.65125e-09 3.26919e-09
4897 2 0.002 0.0900873 -0.11602 -0.000498488 -2.08655e-13 2.65721e-13 1.4672e-12 2.23828e-06 2.2705e-08 2.21261e-08
4765 2 0.002 0.0831456 -0.116003 -0.000551522 4.21807e-14 4.10037e-13 -2.88627e-13 2.87146e-06 1.31597e-08 7.40294e-09
4764 2 0.002 0.0831381 -0.119997 -0.000208335 1.82982e-14 2.40085e-13 3.64122e-13 2.75011e-06 2.96217e-09 1.21525e-09
4698 2 0.002 0.0796737 -0.113987 -0.000318579 1.00238e-13 5.5563e-13 1.41211e-13 5.4927e-06 3.0718e-09 6.05845e-09
4898 2 0.002 0.090078 -0.112012 -0.000552074 2.3927e-13 4.22972e-13 -7.19427e-13 5.98679e-06 1.86157e-08 6.30694e-09
4831 2 0.002 0.0866109 -0.118014 -0.000406995 -5.06065e-14 5.40974e-14 -8.49912e-13 2.63166e-06 1.84769e-08 1.7808e-09
4697 2 0.002 0.0796717 -0.117989 -0.000205738 7.23712e-14 4.00867e-13 -9.13946e-14 3.91185e-06 1.78078e-09 2.73587e-09
4696 2 0.002 0.0796696 -0.121994 -5.72685e-05 5.37502e-14 1.98208e-13 -8.22071e-14 2.76302e-06 5.7308e-10 1.1724e-09
878 2 0.002 -0.096944 -0.0959755 -0.00106193 -4.05717e-13 2.12599e-13 -3.67202e-13 1.02324e-05 2.04476e-09 1.93864e-08
754 2 0.002 -0.103886 -0.0959884 -0.000286969 -2.93358e-13 1.43947e-13 -1.79113e-13 6.62914e-06 1.30788e-09 8.74431e-09
753 2 0.002 -0.103895 -0.0999955 -0.000223349 -2.16821e-13 7.66927e-14 -4.77059e-13 6.35553e-06 2.32854e-09 1.08802e-08
814 2 0.002 -0.100433 -0.10199 -0.000437445 -2.05378e-13 1.49859e-13 2.51495e-13 4.13367e-06 2.93335e-09 2.13245e-08
816 2 0.002 -0.100408 -0.0939778 -0.000591854 -3.02322e-13 1.82446e-13 3.33353e-13 4.25988e-06 1.32231e-09 1.32289e-08
876 2 0.002 -0.0969678 -0.103985 -0.000662308 -3.1685e-13 1.22937e-13 -1.68344e-13 4.05423e-06 1.744e-09 1.66574e-08
877 2 0.002 -0.0969561 -0.0999829 -0.00094544 -4.1574e-13 1.8026e-13 -3.35938e-13 9.62054e-06 1.92224e-09 2.20648e-08
813 2 0.002 -0.100444 -0.105989 -0.000217448 -1.07787e-13 3.84686e-14 1.94108e-14 0.00674015 2.61484e-09 1.064e-08
875 2 0.002 -0.096982 -0.107989 -0.000319861 -1.73737e-13 7.55242e-14 1.23789e-13 7.05465e-06 3.01238e-09 1.27064e-08
815 2 0.002 -0.100418 -0.0979842 -0.00060818 -2.53936e-13 1.75253e-13 5.05636e-13 4.01331e-06 1.37789e-09 1.38328e-08
694 2 0.002 -0.107363 -0.098 -7.06026e-05 -1.29681e-13 6.16971e-14 1.91498e-13 1.84006e-06 1.18365e-09 4.4486e-09
18 1 0.015 -0.0863845 -0.0954461 -0.00482267 -1.57026e-12 -7.73002e-12 -5.90447e-13 -6.01028e-06 0 1.35829e-06
1072 2 0.002 -0.0865383 -0.0939852 -0.00288477 -2.02228e-13 -1.95001e-14 -2.65759e-13 4.2009e-05 7.34744e-08 1.08166e-06
1206 2 0.002 -0.0796223 -0.0939943 -0.00140841 -3.1007e-13 -9.34326e-14 7.49092e-13 1.81927e-05 1.57491e-08 6.70788e-08
942 2 0.002 -0.0934742 -0.093969 -0.0015593 -1.9769e-13 1.38726e-13 4.42083e-13 1.36356e-05 6.87926e-09 3.24571e-08
1069 2 0.002 -0.0865724 -0.105996 -0.000933755 -5.07412e-13 1.6508e-13 3.23621e-13 9.78325e-06 4.00777e-09 2.28406e-08
1204 2 0.002 -0.0796497 -0.101994 -0.000809495 -5.00512e-13 5.64492e-14 5.8204e-15 6.68309e-06 4.0848e-09 3.90945e-08
940 2 0.002 -0.0934933 -0.101986 -0.00119658 -4.19557e-13 2.10167e-13 2.65319e-13 1.03604e-05 3.0478e-09 2.38403e-08
1004 2 0.002 -0.0900309 -0.103993 -0.00122351 -4.5553e-13 2.07692e-13 5.55025e-13 1.02873e-05 4.2799e-09 2.11001e-08
1136 2 0.002 -0.0831025 -0.104001 -0.001029 -5.86173e-13 1.60872e-13 3.12119e-13 6.09402e-06 5.05614e-09 3.33911e-08
1205 2 0.002 -0.0796295 -0.0979944 -0.00128011 -3.88754e-13 -4.39123e-14 -4.32553e-14 1.79898e-05 1.02331e-08 7.7844e-08
1137 2 0.002 -0.0830754 -0.100005 -0.00171149 -4.4133e-13 -2.98384e-14 -4.32841e-13 1.81117e-05 2.84495e-08 6.17343e-08
1138 2 0.002 -0.0830529 -0.096001 -0.00233902 -3.56367e-13 8.98421e-15 1.35201e-13 3.18498e-05 5.04745e-08 4.2263e-07
941 2 0.002 -0.0934827 -0.0979802 -0.00151589 -3.50189e-13 1.8754e-13 2.7464e-13 1.26653e-05 5.36961e-09 3.13587e-08
1005 2 0.002 -0.0900184 -0.0999957 -0.00180391 -4.60777e-13 1.53647e-13 5.87816e-14 1.46162e-05 1.5912e-08 3.89193e-08
1006 2 0.002 -0.0900146 -0.0959816 -0.00217906 -3.04528e-13 9.31691e-14 5.50481e-14 1.87404e-05 4.74619e-08 5.88734e-08
1070 2 0.002 -0.0865508 -0.102003 -0.00163256 -5.03867e-13 -3.9741e-14 -7.57379e-13 1.46609e-05 1.14724e-08 4.54873e-08
1071 2 0.002 -0.0865387 -0.0980157 -0.00247095 -4.29563e-13 1.90133e-14 -3.07911e-13 2.6175e-05 4.93212e-08 2.38593e-07
939 2 0.002 -0.0935077 -0.105987 -0.000759849 -3.80245e-13 9.2838e-14 -2.8348e-13 2.69191e-06 1.71636e-09 1.57287e-08
1003 2 0.002 -0.0900478 -0.107988 -0.000660426 -4.02431e-13 5.66546e-14 -4.95664e-13 2.40283e-06 2.60194e-09 1.15603e-08
1135 2 0.002 -0.0831311 -0.108004 -0.00040637 -4.66811e-13 1.41123e-13 3.58842e-14 2.28933e-06 2.10189e-09 2.58986e-08
1203 2 0.002 -0.0796764 -0.105997 -0.000282358 -4.44354e-13 1.06487e-13 -3.32214e-13 5.05843e-06 1.96613e-09 2.33126e-08
1274 2 0.002 -0.0762022 -0.0959914 -0.000537527 -1.31745e-13 -1.34925e-13 -3.78984e-13 1.36701e-05 3.37009e-09 3.9423e-08
1273 2 0.002 -0.0762175 -0.0999872 -0.000288506 -2.69421e-13 -5.37993e-14 -4.51774e-13 6.558e-06 2.24851e-09 4.34728e-08
3585 2 0.002 0.0277891 -0.108072 -8.98284e-05 -2.40932e-13 5.52147e-14 8.73714e-13 4.10462e-06 2.413e-09 1.59866e-08
3664 2 0.002 0.0312527 -0.106068 -2.41125e-05 -1.64252e-13 1.14756e-13 8.1923e-15 3.04895e-06 2.4706e-09 2.2207e-08
3896 2 0.002 0.0416027 -0.107961 -0.00113489 -1.27243e-14 2.15277e-13 -3.6286e-13 1.48853e-05 5.08012e-09 6.64156e-08
3741 2 0.002 0.0347044 -0.108006 -0.000798962 -2.16499e-13 4.73573e-13 -5.2627e-13 4.32318e-06 2.29488e-09 4.7429e-08
3819 2 0.002 0.0381478 -0.106023 -0.000460539 5.12797e-15 1.1893e-13 -2.18184e-13 3.25262e-06 2.18329e-09 6.33381e-08
3973 2 0.002 0.0450496 -0.105993 -0.000493642 6.44188e-14 -2.4333e-13 2.08363e-13 5.19345e-06 3.72374e-09 2.60905e-08
4048 2 0.002 0.04852 -0.107972 -0.000630472 1.30758e-13 -3.1151e-14 -9.3963e-13 2.6178e-06 3.63195e-09 3.07024e-08
4634 2 0.002 0.0761897 -0.0959506 -0.000185087 -4.66586e-13 -1.24512e-14 6.33765e-13 3.08215e-06 1.07444e-09 2.3098e-08
4702 2 0.002 0.0796514 -0.0979434 -0.000436602 -1.40555e-13 1.99213e-13 3.68153e-13 7.69177e-06 1.84241e-09 1.16732e-08
4769 2 0.002 0.0831182 -0.099948 -0.000588284 1.59423e-13 4.32854e-13 -1.39499e-13 6.49486e-06 2.34632e-09 7.28713e-09
4836 2 0.002 0.0865866 -0.0979392 -0.000757287 4.54725e-13 4.24722e-13 -8.27506e-14 6.63387e-06 2.14841e-09 7.65006e-09
4902 2 0.002 0.0900572 -0.0959334 -0.000714668 7.33128e-13 4.15364e-13 -7.5499e-15 6.90227e-06 1.44596e-09 7.86237e-09
4770 2 0.002 0.0831153 -0.0959304 -0.000842175 1.19103e-13 1.16666e-13 -4.57029e-13 8.18439e-06 3.42794e-09 1.33056e-08
4837 2 0.002 0.0865888 -0.0939217 -0.00102124 4.58546e-13 1.04346e-13 -3.06058e-13 8.52802e-06 3.77629e-09 1.20307e-08
4703 2 0.002 0.079647 -0.0939359 -0.000795428 -3.39052e-13 -2.62701e-13 -9.79898e-13 4.92035e-06 3.0966e-09 2.3781e-08
4768 2 0.002 0.0831236 -0.103968 -0.00050034 1.73347e-13 6.29936e-13 -1.47807e-13 5.98691e-06 2.05292e-09 6.22488e-09
4701 2 0.002 0.0796579 -0.101957 -0.000246576 -1.37062e-13 4.42975e-13 -4.55299e-13 6.6257e-06 1.52055e-09 6.69425e-09