ITEM: TIMESTEP
450000
ITEM: NUMBER OF ATOMS
5843
ITEM: BOX BOUNDS ff ff ff
-2.5000000000000000e-01 2.5000000000000000e-01
-2.5000000000000000e-01 2.5000000000000000e-01
-1.0000000000000001e-01 1.0000000000000001e-01
ITEM: ATOMS id type radius x y z fx fy fz v_pressure c_bendingE c_stretchingE
2545 2 0.002 -0.0173246 -0.141976 -0.000266804 2.26588e-13 6.98304e-13 5.42673e-13 3.05266e-06 2.58397e-09 9.37608e-09
2465 2 0.002 -0.0207817 -0.143989 -1.20065e-05 9.05893e-14 5.47238e-13 1.4349e-13 3.13113e-06 2.34598e-09 1.74167e-09
2703 2 0.002 -0.0103959 -0.145981 -0.000198902 2.60234e-13 3.94581e-13 9.34014e-13 6.54893e-06 2.24855e-09 1.05919e-08
2862 2 0.002 -0.00347462 -0.145981 -0.000198571 5.82251e-13 3.96248e-13 8.97032e-14 3.28784e-06 2.51226e-09 1.07948e-08
2863 2 0.002 -0.00349053 -0.141967 -0.000597638 1.33104e-12 8.39025e-13 2.17844e-12 2.65085e-06 1.21856e-09 1.69814e-08
2783 2 0.002 -0.00694343 -0.143975 -0.000416468 7.39452e-13 2.4562e-13 -1.24952e-12 2.70226e-06 2.54908e-09 2.00502e-08
2704 2 0.002 -0.0104109 -0.141964 -0.000609722 6.26796e-13 4.74997e-13 -2.56804e-13 7.8288e-06 1.34045e-09 1.64135e-08
2624 2 0.002 -0.0138629 -0.143978 -0.000284443 1.8797e-13 3.57757e-13 -5.29883e-13 3.42711e-06 2.53701e-09 1.19828e-08
2942 2 0.002 -1.92474e-05 -0.143977 -0.000247144 1.42337e-12 4.58665e-13 -2.43048e-12 2.3193e-06 2.77757e-09 1.23497e-08
3022 2 0.002 0.00344456 -0.141981 -0.000133611 1.51557e-12 1.70199e-12 4.96651e-12 3.15181e-06 3.35537e-09 3.64617e-08
3655 2 0.002 0.03119 -0.14198 -0.000252253 -9.23439e-14 1.06076e-12 7.00294e-13 6.24349e-06 1.97724e-09 8.66982e-09
3340 2 0.002 0.0173055 -0.141992 -0.000100243 1.35442e-12 2.0662e-12 -1.87279e-13 6.07386e-06 1.19225e-09 6.66793e-09
3498 2 0.002 0.0242553 -0.141984 -0.000256188 3.44875e-13 1.79928e-12 -2.72511e-13 2.7848e-06 9.40794e-10 6.10595e-09
3419 2 0.002 0.0207846 -0.143987 -9.5063e-05 4.27583e-13 1.27024e-12 9.14439e-13 4.21458e-06 8.06258e-10 2.78498e-09
3576 2 0.002 0.0277183 -0.143985 -0.000138457 -4.54685e-14 9.77072e-13 1.03304e-13 4.98072e-06 1.13575e-09 4.99183e-09
63 1 0.015 -0.0572089 -0.134807 -0.00109052 -1.20257e-11 -1.35501e-11 -4.49376e-12 -1.94828e-06 0 4.20581e-07
1622 2 0.002 -0.0588966 -0.133986 -8.41756e-05 -4.71937e-13 3.68959e-13 6.82127e-15 1.9238e-06 6.30887e-09 1.18133e-08
1697 2 0.002 -0.0554458 -0.131989 -9.92056e-05 -5.53089e-13 2.30179e-13 1.09776e-12 7.49749e-06 1.11449e-08 4.42173e-07
1696 2 0.002 -0.0554255 -0.135992 -6.53102e-05 -1.24048e-13 2.10994e-13 -2.74973e-13 2.68286e-06 6.30935e-09 1.28835e-09
2547 2 0.002 -0.0173606 -0.133942 -0.000845434 4.57228e-13 1.48225e-12 5.57842e-13 9.53605e-06 2.10076e-09 1.74772e-08
2468 2 0.002 -0.0208091 -0.131951 -0.00038446 3.91132e-13 2.23723e-12 -4.4727e-14 4.44241e-06 1.76946e-09 1.55497e-08
2548 2 0.002 -0.0173765 -0.129924 -0.00104012 -1.49259e-13 1.54026e-12 -2.28711e-12 1.17477e-05 4.11051e-09 2.58413e-08
2549 2 0.002 -0.0173882 -0.125912 -0.00102561 4.33052e-13 1.51364e-12 1.85549e-12 1.29557e-05 5.92401e-09 3.04247e-08
2546 2 0.002 -0.0173424 -0.137959 -0.000565441 2.87578e-13 1.09309e-12 -6.9119e-13 3.81864e-06 1.19433e-09 1.16966e-08
2467 2 0.002 -0.0208017 -0.135967 -0.000263344 5.09798e-13 1.80967e-12 8.94545e-13 3.80928e-06 1.11821e-09 1.34092e-08
2469 2 0.002 -0.0208154 -0.127939 -0.000373901 1.03502e-13 2.51808e-12 -1.3174e-12 9.86367e-06 1.71918e-09 1.70442e-08
2466 2 0.002 -0.0207921 -0.139979 -0.00010438 1.16378e-13 1.18124e-12 -1.25906e-12 5.82368e-06 9.85333e-10 7.69687e-09
85 1 0.015 -0.00911124 -0.126133 -0.00488718 2.87334e-11 6.40255e-11 1.63964e-11 -5.78229e-06 0 1.21634e-06
2708 2 0.002 -0.0105469 -0.12587 -0.00277563 -2.54351e-13 3.25748e-13 -5.87606e-14 3.50151e-05 5.95129e-08 6.45727e-07
2867 2 0.002 -0.00356408 -0.125908 -0.00220734 -8.23631e-13 -4.14697e-13 1.13971e-12 1.90051e-05 3.40422e-08 5.91483e-08
2627 2 0.002 -0.0139277 -0.131923 -0.00151206 1.98234e-13 8.18346e-13 -1.00918e-12 1.28487e-05 6.02085e-09 2.89194e-08
2628 2 0.002 -0.0139568 -0.127898 -0.00183196 3.44447e-13 9.19879e-13 1.1535e-12 1.75055e-05 2.54915e-08 5.64369e-08
2706 2 0.002 -0.0104594 -0.133932 -0.00164847 5.73897e-13 4.89566e-13 -2.4143e-13 1.30563e-05 5.35332e-09 3.64492e-08
2707 2 0.002 -0.0104988 -0.12991 -0.00224162 1.77636e-13 3.53161e-13 -3.81851e-13 1.88648e-05 4.34507e-08 6.17279e-08
2786 2 0.002 -0.00701185 -0.131929 -0.00210319 5.32886e-13 3.09144e-13 5.50849e-13 8.49307e-06 1.83318e-08 6.75644e-08
2787 2 0.002 -0.00704581 -0.127903 -0.00280128 -1.12958e-13 2.95913e-14 -3.6677e-13 3.13378e-05 5.00488e-08 4.68308e-07
2866 2 0.002 -0.00355493 -0.129929 -0.00211593 3.89702e-13 5.69056e-16 -7.45999e-13 8.60388e-06 1.50504e-08 7.20766e-08
2946 2 0.002 -8.59043e-05 -0.12794 -0.00172236 -3.81106e-14 3.68479e-13 -1.59913e-12 1.24966e-05 5.71845e-09 3.08387e-08
2784 2 0.002 -0.00696107 -0.139959 -0.000911069 1.14282e-12 4.79809e-13 -2.74575e-14 4.63941e-06 1.34635e-09 2.44966e-08
2625 2 0.002 -0.0138769 -0.139959 -0.000671794 4.57128e-13 6.96691e-13 6.73502e-15 7.75467e-06 1.42274e-09 1.45005e-08
2705 2 0.002 -0.0104313 -0.137949 -0.00110242 8.01708e-13 5.94895e-13 4.17473e-13 9.73284e-06 1.9537e-09 2.37982e-08
2785 2 0.002 -0.00698343 -0.135945 -0.00146826 1.02845e-12 1.48268e-13 -1.64051e-12 5.96557e-06 3.19999e-09 3.81406e-08
2864 2 0.002 -0.00350795 -0.137958 -0.00109421 1.62356e-12 4.10902e-13 -1.15229e-12 2.52491e-06 1.34042e-09 2.91383e-08
2626 2 0.002 -0.0138997 -0.135942 -0.00109441 4.46756e-13 8.17717e-13 -5.02551e-13 9.81902e-06 1.94778e-09 1.94317e-08
2865 2 0.002 -0.00353088 -0.133948 -0.00163328 9.51863e-13 6.80634e-13 2.55414e-12 4.2315e-06 4.61508e-09 4.31733e-08
2945 2 0.002 -7.59713e-05 -0.131953 -0.00152351 8.64915e-13 8.18863e-13 1.31252e-12 5.88265e-06 3.46962e-09 3.91752e-08
2944 2 0.002 -5.50892e-05 -0.135963 -0.00110268 1.92828e-12 7.67953e-13 -1.42846e-12 2.5652e-06 1.19216e-09 3.34486e-08
2943 2 0.002 -3.24907e-05 -0.139969 -0.000637002 2.05204e-12 7.93994e-13 -1.22921e-12 3.04307e-06 8.6388e-10 2.64038e-08
3023 2 0.002 0.0034193 -0.137976 -0.000567217 2.37368e-12 1.4824e-12 -6.16413e-13 3.06538e-06 1.79239e-09 2.94877e-08
3103 2 0.002 0.00687815 -0.135989 -0.000556436 2.2739e-12 2.6063e-12 -3.09491e-13 4.24091e-06 1.53751e-09 1.97581e-08
3104 2 0.002 0.00687079 -0.131985 -0.000915564 1.30709e-12 2.7221e-12 -9.93532e-13 3.70928e-06 2.19144e-09 1.27088e-08
3024 2 0.002 0.00340128 -0.133973 -0.00100543 1.66919e-12 1.70341e-12 3.85718e-13 2.30035e-06 1.64725e-09 2.60613e-08
3184 2 0.002 0.0103504 -0.129992 -0.000869714 4.59964e-13 4.08969e-12 -3.03757e-13 0.0058622 2.4505e-09 6.28397e-09
3263 2 0.002 0.0138308 -0.131996 -0.000753213 1.06713e-12 4.91243e-12 -1.21991e-12 5.71228e-06 1.45035e-09 5.71334e-09
3183 2 0.002 0.0103501 -0.133995 -0.00063057 1.8167e-12 3.89594e-12 9.84143e-13 6.82174e-06 1.57968e-09 8.48577e-09
3025 2 0.002 0.0033919 -0.129966 -0.00128465 4.69723e-13 1.51456e-12 1.40343e-13 9.03967e-06 2.8803e-09 1.91781e-08
3026 2 0.002 0.00339128 -0.125958 -0.00127902 -1.2292e-12 1.14776e-12 1.81994e-12 9.0512e-06 3.16628e-09 1.50674e-08
3105 2 0.002 0.00687012 -0.127978 -0.0010462 -3.70022e-13 2.65647e-12 5.75336e-13 6.81702e-06 2.99408e-09 8.96877e-09
3264 2 0.002 0.0138353 -0.127993 -0.000875436 -4.04176e-13 5.10221e-12 3.61498e-13 0.00504728 2.65425e-09 5.11448e-09
3185 2 0.002 0.0103552 -0.125988 -0.000853527 -1.20411e-12 3.88836e-12 -5.86411e-13 5.42518e-06 3.31275e-09 5.74515e-09
3102 2 0.002 0.00689243 -0.139994 -6.34904e-05 2.40761e-12 2.24448e-12 9.65436e-13 5.2205e-06 1.16315e-08 3.46582e-08
3182 2 0.002 0.0103546 -0.137997 -0.000225422 2.4522e-12 2.85264e-12 -2.79553e-12 8.21169e-06 2.02204e-09 1.38566e-08
3262 2 0.002 0.013829 -0.135995 -0.000450447 2.04786e-12 4.31611e-12 1.03858e-12 6.49613e-06 8.583e-10 6.82224e-09
3261 2 0.002 0.0138308 -0.139994 -7.38005e-05 2.02549e-12 2.6226e-12 -3.72916e-12 7.10213e-06 4.04368e-09 8.27962e-09
3501 2 0.002 0.0242741 -0.129977 -0.00123507 -3.40734e-14 5.36408e-12 -4.75703e-13 0.00686351 1.28322e-09 1.06715e-08
3579 2 0.002 0.0277466 -0.131969 -0.00125037 1.3099e-13 4.18268e-12 -4.50335e-13 7.72129e-06 8.56499e-10 1.26021e-08
3423 2 0.002 0.0207983 -0.127985 -0.00112242 -4.26135e-13 5.95433e-12 5.31467e-13 0.00583817 1.93285e-09 8.10378e-09
3421 2 0.002 0.0207869 -0.135985 -0.000651681 1.07629e-12 4.53932e-12 -8.30462e-13 6.09466e-06 2.94298e-10 7.51689e-09
3499 2 0.002 0.0242607 -0.13798 -0.000587534 6.38303e-13 3.56173e-12 6.47777e-13 6.2343e-06 2.33995e-10 7.30579e-09
3577 2 0.002 0.0277292 -0.139976 -0.000456796 1.36263e-13 2.27496e-12 1.96169e-13 6.07677e-06 6.11456e-10 7.02328e-09
3343 2 0.002 0.0173148 -0.129993 -0.000913922 2.31035e-13 5.7877e-12 -2.24697e-13 0.00541944 1.59606e-09 6.30827e-09
3344 2 0.002 0.0173211 -0.125991 -0.000941542 -1.1584e-12 5.73561e-12 -4.54473e-14 2.50459e-06 2.83936e-09 5.89503e-09
3422 2 0.002 0.0207927 -0.131987 -0.000944427 5.43904e-13 5.6121e-12 -4.66118e-13 0.00606985 8.20708e-10 8.15593e-09
3500 2 0.002 0.0242678 -0.133979 -0.000936133 4.8164e-13 4.68537e-12 -8.061e-13 0.00666373 4.76763e-10 9.21338e-09
3578 2 0.002 0.0277387 -0.135972 -0.00085228 2.27814e-13 3.32224e-12 -1.29904e-12 7.02999e-06 4.70553e-10 9.62409e-09
3502 2 0.002 0.0242791 -0.125972 -0.00139927 -8.57537e-13 5.20682e-12 -1.2457e-12 0.00704712 2.50066e-09 1.18134e-08
3580 2 0.002 0.0277524 -0.127962 -0.00158427 -2.0759e-13 4.30929e-12 -1.05541e-13 8.39727e-06 2.03002e-09 1.56988e-08
3342 2 0.002 0.01731 -0.133992 -0.000688987 1.27054e-12 5.04931e-12 -1.35334e-12 5.9219e-06 6.26575e-10 6.86384e-09
3656 2 0.002 0.0312035 -0.13797 -0.000668409 -4.7099e-15 1.95798e-12 -6.25229e-13 7.43954e-06 7.04838e-10 1.1517e-08
3657 2 0.002 0.0312135 -0.133964 -0.0011428 1.16909e-13 2.75972e-12 -4.49849e-14 8.38928e-06 6.08203e-10 1.52257e-08
3658 2 0.002 0.0312214 -0.129956 -0.00161155 1.34345e-13 2.95388e-12 -2.24717e-13 3.17495e-06 1.28465e-09 1.98884e-08
3341 2 0.002 0.0173065 -0.13799 -0.000375095 1.78413e-12 3.99403e-12 1.48321e-12 6.1698e-06 6.51424e-10 7.02215e-09
3420 2 0.002 0.0207826 -0.139984 -0.000340008 1.0382e-12 2.99276e-12 -6.78545e-13 5.6978e-06 4.37607e-10 5.83972e-09
3659 2 0.002 0.031226 -0.125942 -0.0020151 -1.41697e-13 2.38162e-12 -2.10287e-12 5.52032e-06 3.41347e-09 2.61742e-08
3734 2 0.002 0.0346723 -0.135965 -0.000902429 2.2854e-14 1.33298e-12 -5.67995e-13 9.03824e-06 6.81943e-10 2.14929e-08
3889 2 0.002 0.0415836 -0.135966 -0.000794582 3.07599e-13 -1.32965e-14 -2.34137e-13 4.86862e-06 1.3147e-09 2.68215e-08
3966 2 0.002 0.0450436 -0.133966 -0.000930415 8.97382e-13 -4.27581e-13 -2.81499e-14 3.37668e-06 9.36166e-10 2.9987e-08
3733 2 0.002 0.03466 -0.139976 -0.000371888 -1.10902e-13 7.65418e-13 -1.87759e-13 8.35748e-06 3.77732e-09 1.78905e-08
3811 2 0.002 0.0381216 -0.137974 -0.000561712 -7.55142e-14 5.03644e-13 4.32906e-13 1.01862e-05 3.92927e-09 3.4752e-08
3888 2 0.002 0.0415709 -0.139979 -0.000263377 -4.26455e-14 3.22302e-14 -3.49793e-13 8.45603e-06 3.62028e-09 1.71955e-08
3965 2 0.002 0.0450369 -0.137979 -0.00038923 1.98478e-13 -6.07299e-14 3.97406e-13 4.59938e-06 4.08168e-09 2.18493e-08
3891 2 0.002 0.0416078 -0.127936 -0.0020556 1.54955e-12 -9.44328e-13 -2.88484e-13 7.07415e-06 3.12357e-09 5.52179e-08
3736 2 0.002 0.0346909 -0.12794 -0.00202453 4.26684e-13 1.15885e-12 -1.32273e-12 6.12716e-06 2.09749e-09 3.47059e-08
3813 2 0.002 0.0381467 -0.129945 -0.00180133 8.09844e-13 2.30694e-13 -5.29747e-13 6.24637e-06 1.69379e-09 4.35637e-08
3890 2 0.002 0.0415954 -0.131954 -0.00140768 9.60792e-13 -2.43273e-13 1.65708e-13 3.80109e-06 1.17983e-09 3.83991e-08
3967 2 0.002 0.0450524 -0.129951 -0.00151116 1.76622e-12 -9.81475e-13 -9.55644e-14 2.88746e-06 1.44671e-09 3.74126e-08
3735 2 0.002 0.0346828 -0.131955 -0.00146688 2.99507e-13 1.63236e-12 3.52677e-14 3.42784e-06 8.05056e-10 2.66592e-08
3812 2 0.002 0.0381352 -0.13396 -0.00117356 3.30488e-13 5.50009e-13 -8.37006e-14 1.0649e-05 6.14681e-10 3.43288e-08
3968 2 0.002 0.045066 -0.125933 -0.00208896 2.24126e-12 -1.70126e-12 -2.99769e-13 4.74385e-06 4.28593e-09 4.80302e-08
3814 2 0.002 0.0381565 -0.125923 -0.00245067 1.09458e-12 -3.99379e-13 -2.84769e-13 1.60708e-05 5.47121e-09 6.31773e-08
4042 2 0.002 0.0484972 -0.131966 -0.000938443 1.42301e-12 -3.87788e-13 2.50388e-12 2.37837e-06 1.41852e-09 2.62982e-08
4041 2 0.002 0.0484961 -0.135981 -0.000428955 7.16258e-13 -4.18011e-13 -1.57438e-12 2.38732e-06 4.61166e-09 2.62317e-08
4043 2 0.002 0.0485062 -0.127951 -0.00142053 2.59389e-12 -1.36181e-12 -1.18458e-12 2.71313e-06 1.75778e-09 2.95616e-08
4119 2 0.002 0.0519587 -0.125954 -0.0011338 2.81027e-12 -1.00033e-12 1.63699e-13 3.23775e-06 1.66105e-09 2.29894e-08
4118 2 0.002 0.0519518 -0.129966 -0.000811308 2.14193e-12 -5.93972e-13 1.37184e-12 4.19479e-06 1.41533e-09 1.74693e-08
4194 2 0.002 0.0554088 -0.127972 -0.000522706 2.45604e-12 -3.45631e-13 1.2878e-12 7.66367e-06 9.75031e-10 1.68594e-08
4117 2 0.002 0.051948 -0.13398 -0.000423049 1.38854e-12 -5.08335e-13 -1.63185e-12 2.58767e-06 3.74505e-09 1.77336e-08
4192 2 0.002 0.0554153 -0.135987 -0.00011651 6.32534e-13 -2.01259e-13 4.80144e-13 2.25383e-06 3.32471e-09 4.64532e-09
4193 2 0.002 0.0554075 -0.131976 -0.000301012 1.83263e-12 -3.84064e-13 -1.28355e-12 2.94951e-06 2.62193e-09 8.29346e-09
4269 2 0.002 0.0588624 -0.125986 -0.000144144 2.43996e-12 1.33654e-13 1.61021e-12 6.91044e-06 1.89756e-09 1.49005e-08
938 2 0.002 -0.0935228 -0.109989 -0.000321454 -1.24732e-12 1.35737e-12 1.2534e-13 1.59163e-06 3.40098e-09 1.07928e-08
1068 2 0.002 -0.0865942 -0.109994 -0.000341474 -1.95551e-12 3.01139e-12 -1.1517e-12 2.21792e-06 2.58019e-09 1.36559e-08
1002 2 0.002 -0.0900636 -0.111987 -0.000199276 -1.30985e-12 2.01053e-12 6.90164e-13 2.11623e-06 3.27791e-09 4.8314e-09
2470 2 0.002 -0.0208148 -0.123937 -0.000169723 2.67861e-13 2.54472e-12 2.24951e-13 5.36035e-06 1.33712e-09 2.3577e-08
2550 2 0.002 -0.0173774 -0.121915 -0.000694237 -1.82915e-13 1.49171e-12 -3.882e-14 1.30993e-05 3.64406e-09 3.77915e-08
2551 2 0.002 -0.017359 -0.117926 -0.000168152 1.16541e-13 9.36877e-13 1.13946e-12 1.13185e-05 2.04635e-09 2.54415e-08
2630 2 0.002 -0.0139307 -0.119897 -0.00103896 -1.82869e-13 -3.39962e-14 1.99063e-12 1.44302e-05 6.33477e-09 4.1986e-08
2788 2 0.002 -0.00704633 -0.123864 -0.00259147 -7.04384e-13 -3.59688e-13 1.46067e-12 3.16042e-05 4.83367e-08 4.54042e-07
2789 2 0.002 -0.00701365 -0.119894 -0.00161094 -1.13283e-12 -2.70638e-13 -2.12039e-12 1.78894e-05 1.53887e-08 6.87913e-08
2868 2 0.002 -0.00355616 -0.121908 -0.00176102 -1.57326e-12 -7.44705e-13 1.14101e-12 1.76054e-05 1.29339e-08 6.47596e-08
2710 2 0.002 -0.0104627 -0.117899 -0.00103629 -5.42908e-13 -1.02189e-12 1.54289e-12 1.46511e-05 5.34147e-09 4.83396e-08
2629 2 0.002 -0.0139588 -0.123887 -0.00167849 -2.51076e-13 6.63102e-13 3.30194e-13 1.85195e-05 2.39881e-08 7.38067e-08
2709 2 0.002 -0.0105011 -0.121874 -0.00192442 -7.80657e-13 -4.57381e-14 -3.8419e-13 2.03532e-05 4.11399e-08 7.93908e-08
2947 2 0.002 -8.48877e-05 -0.123934 -0.0015472 -1.5671e-12 -1.40555e-13 8.49322e-13 1.28283e-05 5.02e-09 3.09092e-08
2869 2 0.002 -0.00352948 -0.117936 -0.000994255 -1.54776e-12 -8.05292e-13 -1.55668e-12 1.33723e-05 3.80303e-09 3.5219e-08
2948 2 0.002 -7.03756e-05 -0.119953 -0.00102317 -2.1781e-12 -4.56604e-13 1.85026e-14 1.24437e-05 2.74371e-09 3.58106e-08
2790 2 0.002 -0.00698514 -0.115926 -0.000713442 -8.63237e-13 -1.51367e-12 6.13547e-13 1.30543e-05 3.29029e-09 3.84335e-08
2631 2 0.002 -0.0139005 -0.115914 -0.000316499 -1.62821e-13 -2.24459e-13 -2.58628e-13 1.18636e-05 2.1448e-09 3.09711e-08
2711 2 0.002 -0.0104331 -0.113922 -0.000209285 -4.54391e-14 -1.49763e-12 5.37234e-13 5.93333e-06 2.06447e-09 3.64319e-08
2870 2 0.002 -0.00350442 -0.113968 -0.000218724 -1.27845e-12 -2.57267e-12 4.99916e-12 1.0805e-05 1.67596e-09 2.10176e-08
2949 2 0.002 -4.42547e-05 -0.115987 -0.00033266 -1.79503e-12 -4.29471e-13 -3.12107e-12 5.49742e-06 1.22033e-09 2.55691e-08
3107 2 0.002 0.00688944 -0.120004 -0.000381677 -3.20314e-12 1.17165e-12 3.022e-12 7.99699e-06 2.0503e-09 1.57591e-08
3266 2 0.002 0.0138601 -0.120023 -0.000246531 -3.08227e-12 3.61173e-12 1.36174e-12 5.96476e-06 4.41607e-09 6.85687e-09
3186 2 0.002 0.010366 -0.122 -0.000518391 -2.69091e-12 3.23354e-12 4.07432e-13 5.9265e-06 3.37784e-09 7.39024e-09
3027 2 0.002 0.00339953 -0.121966 -0.000940549 -1.89729e-12 1.17736e-12 -3.94618e-12 4.78702e-06 2.41193e-09 2.03456e-08
3106 2 0.002 0.00687586 -0.123978 -0.000871415 -1.925e-12 2.21347e-12 2.05471e-13 3.4744e-06 2.96824e-09 9.59927e-09
3265 2 0.002 0.0138437 -0.123995 -0.000724749 -1.94288e-12 4.57856e-12 1.9964e-12 4.92931e-06 3.70704e-09 5.18729e-09
3028 2 0.002 0.00341847 -0.118001 -0.000342036 -3.12841e-12 -4.5742e-13 3.27642e-12 5.08581e-06 1.34533e-09 2.7072e-08
3583 2 0.002 0.0277685 -0.115972 -0.0013503 -1.13473e-12 9.92713e-13 1.9863e-12 2.75237e-06 2.41719e-09 3.37184e-08
3584 2 0.002 0.0277812 -0.11202 -0.000768192 -2.40711e-12 8.80751e-13 -6.04544e-12 3.48646e-06 1.83811e-09 3.20567e-08
3345 2 0.002 0.0173326 -0.122001 -0.0006848 -2.40879e-12 4.99572e-12 2.73848e-13 1.74295e-06 3.28969e-09 6.71799e-09
3424 2 0.002 0.0208051 -0.123984 -0.00108745 -1.55629e-12 5.5077e-12 3.65543e-14 2.89154e-06 2.78901e-09 8.41977e-09
3426 2 0.002 0.0208397 -0.116047 -0.000215438 -2.56381e-12 2.77546e-12 1.93401e-12 2.65832e-06 2.21849e-09 2.3592e-08
3503 2 0.002 0.0242849 -0.12197 -0.0013394 -1.28155e-12 4.30798e-12 2.39578e-12 3.73663e-06 3.00262e-09 1.41677e-08
3504 2 0.002 0.0242965 -0.11799 -0.00101219 -2.08531e-12 3.14219e-12 -4.47726e-14 2.10937e-06 2.15696e-09 2.23169e-08
3505 2 0.002 0.0243134 -0.114037 -0.000482364 -1.80525e-12 1.35016e-12 1.83383e-12 3.04012e-06 1.15347e-09 3.0442e-08
3581 2 0.002 0.0277559 -0.123952 -0.0017695 -5.82655e-13 3.77001e-12 5.34671e-13 9.29484e-06 3.77204e-09 1.994e-08
3582 2 0.002 0.0277587 -0.119949 -0.00170879 -1.62455e-12 2.78237e-12 -3.04779e-12 5.11113e-06 3.77936e-09 2.49985e-08
3425 2 0.002 0.0208182 -0.12 -0.000774135 -2.23489e-12 4.26291e-12 2.19312e-12 2.14833e-06 2.5435e-09 1.22981e-08
3346 2 0.002 0.0173547 -0.118044 -0.000116455 -3.22655e-12 3.83501e-12 1.74174e-13 2.21762e-06 3.75053e-09 1.14668e-08
3660 2 0.002 0.0312276 -0.121925 -0.00225905 -1.33367e-13 1.62745e-12 7.9998e-13 1.32722e-05 7.10275e-09 3.9425e-08
3661 2 0.002 0.0312266 -0.11792 -0.00218027 1.01377e-13 1.64839e-13 3.65633e-12 1.45186e-05 8.98825e-09 4.41246e-08
3662 2 0.002 0.0312384 -0.113951 -0.00167871 -3.73533e-13 -1.2472e-12 3.05318e-12 1.45294e-05 4.91054e-09 5.30409e-08
3663 2 0.002 0.0312465 -0.110005 -0.000910016 -8.28482e-13 -1.9901e-12 1.7391e-12 5.88641e-06 2.85306e-09 3.25549e-08
109 1 0.015 0.0403167 -0.117524 -0.00629208 3.08604e-11 -8.49106e-11 -2.47219e-11 -6.65482e-06 0 2.16223e-06
3818 2 0.002 0.0381572 -0.109938 -0.00162244 -1.2661e-12 -3.08002e-12 -5.66682e-13 8.80488e-06 7.46193e-09 8.03508e-08
3894 2 0.002 0.0416524 -0.115814 -0.00357962 4.56759e-13 -3.16575e-12 -2.13429e-12 4.70783e-05 7.64032e-08 1.21766e-06
3895 2 0.002 0.0416237 -0.111878 -0.00232358 -1.07811e-12 -3.46437e-12 -5.5097e-13 1.14955e-05 3.35276e-08 1.30173e-07
3971 2 0.002 0.0450887 -0.113872 -0.00240449 -4.86311e-13 -3.08395e-12 -2.22525e-13 1.08593e-05 2.72338e-08 1.09512e-07
3972 2 0.002 0.0450713 -0.109922 -0.00148835 -2.10483e-12 -2.98896e-12 2.59162e-13 7.38594e-06 9.44561e-09 4.89766e-08
3740 2 0.002 0.0347026 -0.111935 -0.00181404 -1.58584e-13 -3.36755e-12 4.08992e-12 8.57094e-06 7.64324e-09 6.47801e-08
3737 2 0.002 0.0346944 -0.123919 -0.00254171 6.1845e-13 6.58253e-13 7.30679e-13 1.54635e-05 8.64083e-09 4.82698e-08
3739 2 0.002 0.0346946 -0.115887 -0.00266629 -1.68775e-13 -1.5583e-12 -6.54116e-13 2.24534e-05 3.40128e-08 1.10965e-07
3816 2 0.002 0.0381543 -0.117839 -0.00375528 4.13961e-13 -2.36382e-12 -2.7885e-12 4.66195e-05 7.72306e-08 1.18109e-06
3817 2 0.002 0.0381634 -0.113867 -0.0027674 -4.98739e-13 -2.57344e-12 -2.79554e-12 2.61425e-05 6.45534e-08 1.27667e-07
3969 2 0.002 0.0450818 -0.121906 -0.00260152 1.63448e-12 -2.06947e-12 2.49203e-12 1.89211e-05 1.49469e-08 7.31653e-08
3738 2 0.002 0.0346921 -0.119888 -0.00290854 3.73811e-13 -4.42957e-13 1.95826e-14 2.12401e-05 2.82101e-08 9.71295e-08
3815 2 0.002 0.0381616 -0.121893 -0.00312756 9.95717e-13 -1.21209e-12 -2.6351e-13 2.32974e-05 5.06119e-08 1.04457e-07
3892 2 0.002 0.0416241 -0.123913 -0.0027502 1.57488e-12 -1.56693e-12 9.86557e-13 1.94936e-05 1.48257e-08 8.8376e-08
3893 2 0.002 0.0416498 -0.119881 -0.00350467 1.32186e-12 -2.61168e-12 -1.20943e-13 3.34859e-05 6.39362e-08 3.34257e-07
3970 2 0.002 0.0450941 -0.117873 -0.0028014 1.05801e-12 -2.73612e-12 5.54852e-14 2.28475e-05 5.03292e-08 8.79079e-08
4046 2 0.002 0.0485333 -0.115905 -0.00189632 7.24151e-13 -2.12949e-12 -8.59503e-13 1.50913e-05 8.23719e-09 4.53513e-08
4196 2 0.002 0.055413 -0.119958 -0.000756921 1.58969e-12 -5.56894e-13 4.14956e-12 3.98024e-06 1.87023e-09 1.19265e-08
4045 2 0.002 0.0485259 -0.119913 -0.00202089 1.21723e-12 -1.97585e-12 3.79977e-12 1.48341e-05 5.88288e-09 4.22708e-08
4047 2 0.002 0.0485294 -0.111925 -0.00138615 -9.58869e-13 -1.91011e-12 -1.95943e-12 6.9348e-06 6.14296e-09 5.45164e-08
4044 2 0.002 0.0485163 -0.123932 -0.00181624 2.60658e-12 -1.74669e-12 -2.42053e-14 6.50155e-06 3.76586e-09 3.81698e-08
4120 2 0.002 0.0519644 -0.121942 -0.00132913 2.66336e-12 -1.25006e-12 -5.14859e-13 5.28037e-06 2.43092e-09 2.36065e-08
4121 2 0.002 0.0519705 -0.117934 -0.00130661 2.10628e-12 -1.25881e-12 -3.02303e-12 1.0822e-05 2.54424e-09 2.22965e-08
4122 2 0.002 0.0519745 -0.11394 -0.00100412 -6.83459e-13 -1.64825e-12 2.66479e-12 5.44377e-06 2.77674e-09 3.2856e-08
4195 2 0.002 0.0554098 -0.123966 -0.000710835 2.93006e-12 -5.37917e-13 -7.475e-13 8.06659e-06 1.29111e-09 1.63034e-08
4197 2 0.002 0.0554164 -0.115957 -0.000574885 1.17395e-12 -3.21938e-13 -1.60748e-12 4.02185e-06 1.998e-09 1.48312e-08
4123 2 0.002 0.051975 -0.109971 -0.000450604 -1.5091e-12 -6.03968e-13 -3.51781e-12 2.605e-06 2.40041e-09 4.30388e-08
4198 2 0.002 0.0554186 -0.111974 -0.000140394 -1.12713e-12 -6.20432e-13 1.49915e-12 2.90245e-06 1.72763e-09 2.96709e-08
4270 2 0.002 0.0588631 -0.12198 -0.000263715 2.79891e-12 1.38976e-13 -1.89362e-12 6.22924e-06 1.82319e-09 8.15645e-09
4271 2 0.002 0.058866 -0.117974 -0.000198519 1.7748e-12 2.34786e-13 -2.37526e-13 2.94711e-06 2.50905e-09 6.00897e-09
4629 2 0.002 0.0762045 -0.115982 -9.09077e-06 1.93261e-12 -8.26011e-13 -4.08677e-14 4.27941e-06 9.46906e-10 3.016e-09
4766 2 0.002 0.0831489 -0.112007 -0.000666072 2.63509e-12 -2.2041e-12 -1.60154e-12 2.93352e-06 1.08114e-08 2.53638e-08
4833 2 0.002 0.0866076 -0.110012 -0.000755722 3.15267e-12 -2.57041e-12 2.93266e-12 4.02986e-06 1.34194e-08 1.71189e-08
4832 2 0.002 0.0866426 -0.114051 -0.000988258 1.79302e-12 -1.64156e-12 -1.53232e-13 8.09091e-06 2.48647e-08 4.15527e-07
66 1 0.015 0.088532 -0.116097 -0.00198747 -6.00742e-12 6.14183e-12 1.48329e-12 -2.52701e-06 0 4.04184e-07
4699 2 0.002 0.0796742 -0.109984 -0.000280784 3.37879e-12 -2.41084e-12 2.82869e-14 6.75808e-06 1.10859e-09 1.15742e-08
4963 2 0.002 0.0935247 -0.109995 -0.000226636 2.03373e-12 -1.1805e-12 -1.49783e-12 4.32104e-06 2.65125e-09 3.26919e-09
4897 2 0.002 0.0900873 -0.11602 -0.000498488 8.44292e-13 -9.40862e-13 -4.40676e-13 2.23828e-06 2.2705e-08 2.21261e-08
4765 2 0.002 0.0831456 -0.116003 -0.000551522 1.86239e-12 -1.18887e-12 3.24687e-12 2.87146e-06 1.31597e-08 7.40294e-09
4764 2 0.002 0.0831381 -0.119997 -0.000208335 7.07157e-13 -7.85234e-13 -1.35102e-12 2.75011e-06 2.96217e-09 1.21525e-09
4698 2 0.002 0.0796737 -0.113987 -0.000318579 2.34795e-12 -1.59555e-12 6.18441e-13 5.4927e-06 3.0718e-09 6.05845e-09
4898 2 0.002 0.090078 -0.112012 -0.000552074 1.25701e-12 -1.5828e-12 4.98731e-12 5.98679e-06 1.86157e-08 6.30694e-09
4831 2 0.002 0.0866109 -0.118014 -0.000406995 8.59511e-13 -6.42498e-13 1.8082e-12 2.63166e-06 1.84769e-08 1.7808e-09
4697 2 0.002 0.0796717 -0.117989 -0.000205738 1.39877e-12 -9.85463e-13 -7.67488e-13 3.91185e-06 1.78078e-09 2.73587e-09
4696 2 0.002 0.0796696 -0.121994 -5.72685e-05 6.45009e-13 -4.09058e-13 9.77492e-13 2.76302e-06 5.7308e-10 1.1724e-09
878 2 0.002 -0.096944 -0.0959755 -0.00106193 -3.65181e-12 2.7802e-12 7.49704e-13 1.02324e-05 2.04476e-09 1.93864e-08
754 2 0.002 -0.103886 -0.0959884 -0.000286969 -2.98532e-12 2.37283e-12 7.5801e-13 6.62914e-06 1.30788e-09 8.74431e-09
753 2 0.002 -0.103895 -0.0999955 -0.000223349 -1.95403e-12 1.2961e-12 -1.82909e-12 6.35553e-06 2.32854e-09 1.08802e-08
814 2 0.002 -0.100433 -0.10199 -0.000437445 -1.90971e-12 1.85742e-12 9.62272e-13 4.13367e-06 2.93335e-09 2.13245e-08
816 2 0.002 -0.100408 -0.0939778 -0.000591854 -3.92598e-12 2.93815e-12 -1.62246e-13 4.25988e-06 1.32231e-09 1.32289e-08
876 2 0.002 -0.0969678 -0.103985 -0.000662308 -2.26896e-12 2.01132e-12 -7.59011e-13 4.05423e-06 1.744e-09 1.66574e-08
877 2 0.002 -0.0969561 -0.0999829 -0.00094544 -3.33311e-12 2.60875e-12 -1.26697e-12 9.62054e-06 1.92224e-09 2.20648e-08
813 2 0.002 -0.100444 -0.105989 -0.000217448 -6.83261e-13 7.65028e-13 3.37048e-13 0.00674015 2.61484e-09 1.064e-08
875 2 0.002 -0.096982 -0.107989 -0.000319861 -1.09867e-12 1.04177e-12 -4.80224e-13 7.05465e-06 3.01238e-09 1.27064e-08
815 2 0.002 -0.100418 -0.0979842 -0.00060818 -3.19268e-12 2.60255e-12 5.44789e-13 4.01331e-06 1.37789e-09 1.38328e-08
694 2 0.002 -0.107363 -0.098 -7.06026e-05 -1.5031e-12 1.14307e-12 -3.30634e-13 1.84006e-06 1.18365e-09 4.4486e-09
18 1 0.015 -0.0863845 -0.0954461 -0.00482267 1.2419e-11 2.52134e-11 2.22216e-12 -6.01028e-06 0 1.35829e-06
1072 2 0.002 -0.0865383 -0.0939852 -0.00288477 -7.61953e-13 1.42824e-13 -2.73354e-13 4.2009e-05 7.34744e-08 1.08166e-06
1206 2 0.002 -0.0796223 -0.0939943 -0.00140841 1.11255e-12 -1.58079e-12 3.96326e-12 1.81927e-05 1.57491e-08 6.70788e-08
942 2 0.002 -0.0934742 -0.093969 -0.0015593 -2.77438e-12 1.83138e-12 2.52553e-12 1.36356e-05 6.87926e-09 3.24571e-08
1069 2 0.002 -0.0865724 -0.105996 -0.000933755 -2.3757e-12 3.45423e-12 7.55354e-13 9.78325e-06 4.00777e-09 2.28406e-08
1204 2 0.002 -0.0796497 -0.101994 -0.000809495 8.40856e-14 1.69955e-12 -7.35322e-13 6.68309e-06 4.0848e-09 3.90945e-08
940 2 0.002 -0.0934933 -0.101986 -0.00119658 -2.90576e-12 2.85586e-12 8.57998e-13 1.03604e-05 3.0478e-09 2.38403e-08
1004 2 0.002 -0.0900309 -0.103993 -0.00122351 -2.78992e-12 2.6699e-12 -2.23913e-12 1.02873e-05 4.2799e-09 2.11001e-08
1136 2 0.002 -0.0831025 -0.104001 -0.001029 -1.21621e-12 2.4043e-12 -3.4826e-12 6.09402e-06 5.05614e-09 3.33911e-08
1205 2 0.002 -0.0796295 -0.0979944 -0.00128011 8.23585e-13 1.54934e-13 9.95083e-13 1.79898e-05 1.02331e-08 7.7844e-08
1137 2 0.002 -0.0830754 -0.100005 -0.00171149 -6.36974e-13 1.40636e-12 -1.76178e-12 1.81117e-05 2.84495e-08 6.17343e-08
1138 2 0.002 -0.0830529 -0.096001 -0.00233902 1.37631e-13 1.27118e-13 3.11895e-13 3.18498e-05 5.04745e-08 4.2263e-07
941 2 0.002 -0.0934827 -0.0979802 -0.00151589 -3.30061e-12 2.60964e-12 5.03835e-13 1.26653e-05 5.36961e-09 3.13587e-08
1005 2 0.002 -0.0900184 -0.0999957 -0.00180391 -2.69603e-12 2.69657e-12 6.97465e-13 1.46162e-05 1.5912e-08 3.89193e-08
1006 2 0.002 -0.0900146 -0.0959816 -0.00217906 -2.48994e-12 1.70419e-12 -9.86344e-14 1.87404e-05 4.74619e-08 5.88734e-08
1070 2 0.002 -0.0865508 -0.102003 -0.00163256 -2.10511e-12 2.33725e-12 -2.44722e-12 1.46609e-05 1.14724e-08 4.54873e-08
1071 2 0.002 -0.0865387 -0.0980157 -0.00247095 -1.64126e-12 1.76383e-12 1.81084e-13 2.6175e-05 4.93212e-08 2.38593e-07
939 2 0.002 -0.0935077 -0.105987 -0.000759849 -2.19863e-12 2.4049e-12 8.34503e-13 2.69191e-06 1.71636e-09 1.57287e-08
1003 2 0.002 -0.0900478 -0.107988 -0.000660426 -2.18166e-12 2.70959e-12 -7.55478e-15 2.40283e-06 2.60194e-09 1.15603e-08
1135 2 0.002 -0.0831311 -0.108004 -0.00040637 -1.97755e-12 3.65029e-12 4.85037e-13 2.28933e-06 2.10189e-09 2.58986e-08
1203 2 0.002 -0.0796764 -0.105997 -0.000282358 -1.11835e-12 3.2909e-12 1.26827e-12 5.05843e-06 1.96613e-09 2.33126e-08
1274 2 0.002 -0.0762022 -0.0959914 -0.000537527 2.07947e-12 -1.0863e-12 3.81641e-12 1.36701e-05 3.37009e-09 3.9423e-08
1273 2 0.002 -0.0762175 -0.0999872 -0.000288505 2.18347e-12 3.46263e-13 -9.39169e-13 6.558e-06 2.24851e-09 4.34728e-08
3585 2 0.002 0.0277891 -0.108072 -8.98284e-05 -5.40086e-13 -1.7473e-12 3.40023e-12 4.10462e-06 2.413e-09 1.59866e-08
3664 2 0.002 0.0312527 -0.106068 -2.41125e-05 -1.39955e-12 -6.14242e-13 -5.97446e-12 3.04895e-06 2.4706e-09 2.2207e-08
3896 2 0.002 0.0416027 -0.107961 -0.00113489 -2.33733e-12 -3.09082e-12 2.32503e-13 1.48853e-05 5.08012e-09 6.64156e-08
3741 2 0.002 0.0347044 -0.108006 -0.000798962 -1.2943e-12 -2.37185e-12 -6.8471e-13 4.32318e-06 2.29488e-09 4.7429e-08
3819 2 0.002 0.0381478 -0.106023 -0.000460539 -2.20735e-12 -2.38693e-12 -9.49095e-13 3.25262e-06 2.18329e-09 6.33381e-08
3973 2 0.002 0.0450496 -0.105993 -0.000493642 -3.24887e-12 -9.5425e-13 -4.7947e-12 5.19345e-06 3.72374e-09 2.60905e-08
4048 2 0.002 0.04852 -0.107972 -0.000630472 -3.25257e-12 -2.06694e-12 1.03463e-12 2.6178e-06 3.63195e-09 3.07024e-08
4634 2 0.002 0.0761897 -0.0959506 -0.000185087 4.05303e-12 -4.79221e-12 1.64812e-15 3.08215e-06 1.07444e-09 2.3098e-08
4702 2 0.002 0.0796514 -0.0979434 -0.000436602 5.46106e-12 -4.97405e-12 1.0812e-12 7.69177e-06 1.84241e-09 1.16732e-08
4769 2 0.002 0.0831182 -0.099948 -0.000588284 6.10406e-12 -4.80398e-12 -2.33905e-13 6.49486e-06 2.34632e-09 7.28713e-09
4836 2 0.002 0.0865866 -0.0979392 -0.000757287 6.45311e-12 -4.60369e-12 1.47378e-12 6.63387e-06 2.14841e-09 7.65006e-09
4902 2 0.002 0.0900572 -0.0959334 -0.000714668 6.38232e-12 -4.11547e-12 -2.93066e-12 6.90227e-06 1.44596e-09 7.86237e-09
4770 2 0.002 0.0831153 -0.0959304 -0.000842175 5.83576e-12 -5.2751e-12 -1.94898e-12 8.18439e-06 3.42794e-09 1.33056e-08
4837 2 0.002 0.0865888 -0.0939217 -0.00102124 5.79051e-12 -4.87841e-12 -1.27318e-12 8.52802e-06 3.77629e-09 1.20307e-08
4703 2 0.002 0.079647 -0.0939359 -0.000795428 4.43007e-12 -5.64702e-12 -3.70927e-12 4.92035e-06 3.0966e-09 2.3781e-08
4768 2 0.002 0.0831236 -0.103968 -0.00050034 5.39372e-12 -4.02195e-12 -1.26953e-12 5.98691e-06 2.05292e-09 6.22488e-09
4701 2 0.002 0.0796579 -0.101957 -0.000246576 5.04352e-12 -4.34504e-12 -1.10772e-12 6.6257e-06 1.52055e-09 6.69425e-09