ITEM: TIMESTEP
50000
ITEM: NUMBER OF ATOMS
112
ITEM: BOX BOUNDS ff ff ff
-2.5000000000000000e-01 2.5000000000000000e-01
-2.5000000000000000e-01 2.5000000000000000e-01
-1.0000000000000001e-01 1.0000000000000001e-01
ITEM: ATOMS id type radius x y z fx fy fz v_pressure c_bendingE c_stretchingE
98 1 0.015 -0.0129115 -0.146978 0 2.59232e-17 -1.04506e-16 0 -0.000318202 0 0
51 1 0.015 0.0142445 -0.143775 0 -4.24885e-17 7.20301e-18 0 -0.00020084 0 0
93 1 0.015 0.0417054 -0.141616 0 -1.50376e-16 -5.07943e-17 0 -0.000387403 0 0
56 1 0.015 -0.067259 -0.128952 0 -1.77398e-17 -1.1599e-17 0 -9.65355e-05 0 0
61 1 0.015 -0.040763 -0.14011 0 1.10593e-16 1.31582e-16 0 -0.000121425 0 0
76 1 0.015 0.0660273 -0.130255 0 1.72133e-16 2.57047e-16 0 -0.000319692 0 0
9 1 0.015 -0.0920058 -0.114438 0 -9.23422e-17 -2.20937e-16 0 -0.000212452 0 0
24 1 0.015 -0.0439874 -0.112165 0 1.62873e-16 -6.43792e-18 0 -0.000186646 0 0
103 1 0.015 -0.0185968 -0.121937 0 -8.38813e-17 8.08122e-17 0 -0.000331178 0 0
20 1 0.015 0.029432 -0.118909 0 -1.71109e-16 2.60476e-16 0 -0.000283166 0 0
43 1 0.015 0.0886111 -0.115673 0 -4.18812e-17 -1.38609e-16 0 -0.000281534 0 0
88 1 0.015 -0.0684711 -0.10006 0 4.78682e-18 6.14497e-17 0 -0.00019312 0 0
92 1 0.015 -0.0202776 -0.0951996 0 -1.99465e-16 1.36378e-17 0 -0.00022332 0 0
47 1 0.015 0.00484428 -0.108043 0 1.03359e-16 -1.43215e-16 0 -0.000221593 0 0
31 1 0.015 0.0544122 -0.10509 0 4.6358e-17 -1.88748e-16 0 -0.000143567 0 0
68 1 0.015 0.108332 -0.0970295 0 1.04592e-16 2.44212e-17 0 -0.000240632 0 0
37 1 0.015 -0.119702 -0.0837914 0 4.28454e-17 -8.08791e-18 0 -0.00031805 0 0
90 1 0.015 -0.0931236 -0.0870623 0 -1.08333e-16 1.45054e-16 0 -0.000262467 0 0
33 1 0.015 -0.0452789 -0.0841267 0 1.45656e-16 -1.81699e-16 0 -0.000202733 0 0
46 1 0.015 0.00329057 -0.0800164 0 -4.33953e-17 -1.14355e-16 0 -0.000191209 0 0
45 1 0.015 0.0286338 -0.0919035 0 7.857e-17 -3.71522e-17 0 -0.000194602 0 0
53 1 0.015 0.0784112 -0.0893742 0 8.15827e-17 -1.17743e-16 0 -0.00011315 0 0
96 1 0.015 -0.0701122 -0.0717767 0 -7.27812e-17 -1.12998e-16 0 -0.000197448 0 0
29 1 0.015 -0.0216984 -0.0677722 0 -9.43016e-17 -6.84122e-18 0 -0.00021258 0 0
22 1 0.015 0.0262384 -0.0642608 0 9.59949e-17 2.60378e-16 0 -0.000194585 0 0
52 1 0.015 0.0520728 -0.0771165 0 -6.16561e-17 9.66817e-17 0 -0.000162304 0 0
112 1 0.015 0.0993925 -0.0701642 0 2.25141e-16 -1.0538e-16 0 -0.000240359 0 0
91 1 0.015 0.12573 -0.0756173 0 -1.1115e-16 -6.08698e-17 0 -0.000324473 0 0
99 1 0.015 -0.134546 -0.0606014 0 -4.84823e-17 -7.31309e-17 0 -0.000295586 0 0
28 1 0.015 -0.0953486 -0.0591946 0 -1.51136e-16 2.11239e-17 0 -0.000162256 0 0
109 1 0.015 -0.0465217 -0.0564653 0 9.62292e-17 9.48227e-17 0 -0.000224357 0 0
27 1 0.015 0.00123641 -0.0517683 0 7.37626e-17 3.77316e-17 0 -0.000197891 0 0
30 1 0.015 0.0486113 -0.0489347 0 -1.82848e-16 -1.29859e-16 0 -0.000199512 0 0
25 1 0.015 0.0742826 -0.0609112 0 -1.24853e-16 1.41668e-16 0 -0.000242038 0 0
10 1 0.015 0.136103 -0.0508449 0 -5.47867e-17 9.9577e-17 0 -0.000288518 0 0
78 1 0.015 -0.142575 -0.0321492 0 -4.28159e-17 3.89631e-18 0 -0.000115498 0 0
41 1 0.015 -0.116713 -0.0424884 0 1.29337e-16 -1.14334e-16 0 -0.00039104 0 0
16 1 0.015 -0.0711711 -0.0439776 0 1.57916e-16 5.40286e-17 0 -0.000200335 0 0
63 1 0.015 -0.0232257 -0.0397872 0 -3.12197e-17 -2.39912e-17 0 -0.000270274 0 0
8 1 0.015 0.0232847 -0.0358101 0 4.09705e-17 6.26303e-17 0 -0.000180882 0 0
107 1 0.015 0.0714566 -0.033917 0 9.14381e-17 -7.32715e-17 0 -0.000269574 0 0
106 1 0.015 0.108532 -0.0435926 0 5.95404e-17 3.57207e-17 0 -0.000134759 0 0
44 1 0.015 -0.0940489 -0.0293885 0 -4.67186e-17 2.91169e-17 0 -0.000234689 0 0
84 1 0.015 -0.0472703 -0.0290841 0 -8.26282e-17 -2.48141e-17 0 -0.000328083 0 0
110 1 0.015 -0.00210812 -0.0225028 0 5.52896e-17 2.59621e-17 0 -0.000168428 0 0
75 1 0.015 0.0462463 -0.0208762 0 -1.46903e-16 -5.99594e-17 0 -0.000195698 0 0
87 1 0.015 0.0938823 -0.0195222 0 -9.8026e-17 -4.55938e-19 0 -0.000283735 0 0
1 1 0.015 0.120255 -0.0170069 0 1.47602e-16 -2.41429e-18 0 -0.000302271 0 0
85 1 0.015 0.145063 -0.025598 0 1.49296e-16 -5.87719e-17 0 -0.000380333 0 0
48 1 0.015 -0.145197 -0.00347305 0 -9.36375e-17 5.82617e-17 0 -9.42577e-05 0 0
73 1 0.015 -0.119453 -0.0155963 0 -4.47117e-17 1.0257e-17 0 -0.000192192 0 0
17 1 0.015 -0.0946041 -0.0018467 0 1.63739e-16 -1.3464e-17 0 -0.000196846 0 0
2 1 0.015 -0.0703464 -0.015497 0 -1.54295e-16 3.45036e-17 0 -0.000231077 0 0
34 1 0.015 -0.0446726 -0.00232363 0 -1.14057e-17 1.75619e-17 0 -0.000233083 0 0
58 1 0.015 0.0210439 -0.00758143 0 -1.13656e-16 -6.67584e-17 0 -0.000208011 0 0
60 1 0.015 0.0694077 -0.00604377 0 9.21504e-17 5.19568e-17 0 -0.000214373 0 0
54 1 0.015 -0.119295 0.0114892 0 -2.85323e-18 1.97596e-17 0 -0.000175556 0 0
26 1 0.015 -0.0690409 0.0116664 0 -6.42718e-17 -1.0385e-16 0 -0.000207076 0 0
42 1 0.015 -0.0173864 0.00132777 0 6.61312e-18 -4.14616e-18 0 -0.000169082 0 0
95 1 0.015 0.0443133 0.00709394 0 -1.00206e-17 2.74651e-17 0 -0.000232317 0 0
70 1 0.015 0.093344 0.00822607 0 -3.67897e-17 -6.6384e-17 0 -0.000215018 0 0
18 1 0.015 0.120666 0.0105391 0 1.59827e-17 -5.20056e-17 0 -0.000249744 0 0
23 1 0.015 0.146304 0.00162205 0 3.00055e-17 3.61547e-17 0 -0.000273738 0 0
36 1 0.015 -0.143661 0.0248084 0 -1.10983e-16 -4.65126e-17 0 -0.000197925 0 0
19 1 0.015 -0.0928617 0.0253386 0 7.69217e-17 -4.90685e-17 0 -0.000215484 0 0
72 1 0.015 -0.0443857 0.0250688 0 9.88325e-18 -8.19462e-17 0 -0.000239092 0 0
5 1 0.015 -0.0178579 0.0305112 0 8.29074e-18 4.68738e-17 0 -0.00016921 0 0
94 1 0.015 0.00637425 0.0158722 0 3.54569e-17 -2.52388e-17 0 -0.00018952 0 0
102 1 0.015 0.0301125 0.0304507 0 1.26567e-17 3.89067e-17 0 -0.000222342 0 0
77 1 0.015 0.0677215 0.0214309 0 9.16533e-17 -1.46526e-17 0 -0.000252922 0 0
81 1 0.015 0.143177 0.0293961 0 -9.56619e-17 -7.46424e-18 0 -0.000150698 0 0
3 1 0.015 -0.116122 0.0385082 0 -3.31421e-17 -5.94067e-17 0 -0.000298484 0 0
69 1 0.015 -0.0683434 0.0394722 0 -9.47413e-17 1.48144e-16 0 -0.000201983 0 0
101 1 0.015 0.0061536 0.0443443 0 -1.37574e-17 -3.24274e-17 0 -0.000181862 0 0
80 1 0.015 0.0535817 0.0447454 0 -7.05841e-17 3.82652e-17 0 -0.000259656 0 0
7 1 0.015 0.0907196 0.0355609 0 3.65164e-17 4.93126e-17 0 -0.000310764 0 0
100 1 0.015 0.116951 0.0371653 0 3.67718e-17 1.36966e-16 0 -0.000339665 0 0
83 1 0.015 -0.138456 0.0521297 0 -2.55793e-16 2.22896e-16 0 -0.000356878 0 0
15 1 0.015 -0.0920241 0.0534396 0 3.09921e-16 -8.61836e-17 0 -0.000202669 0 0
67 1 0.015 -0.0440659 0.052994 0 4.59198e-18 -3.45395e-17 0 -0.000220662 0 0
65 1 0.015 -0.0179697 0.0594184 0 -4.81983e-17 -8.41753e-17 0 -0.000192831 0 0
14 1 0.015 0.0305118 0.0591242 0 6.07664e-17 3.05908e-17 0 -0.00017902 0 0
11 1 0.015 0.0767806 0.0580841 0 2.29054e-17 1.5983e-17 0 -0.00035925 0 0
57 1 0.015 0.103732 0.061625 0 -4.37485e-18 -6.53142e-17 0 -0.000192885 0 0
38 1 0.015 0.134883 0.0570896 0 -1.77085e-16 -8.59724e-17 0 -0.000230916 0 0
82 1 0.015 -0.115929 0.0666556 0 -1.92268e-16 2.82178e-17 0 -0.000273204 0 0
12 1 0.015 -0.0678347 0.0677615 0 -1.238e-16 -8.86365e-18 0 -0.000196344 0 0
49 1 0.015 0.00631316 0.0720904 0 7.68311e-17 9.76293e-17 0 -0.000214386 0 0
62 1 0.015 0.0551632 0.0740408 0 -1.00091e-16 1.14858e-16 0 -0.000190805 0 0
105 1 0.015 -0.115156 0.0928833 0 -1.79293e-16 9.64424e-17 0 -0.000387926 0 0
104 1 0.015 -0.0910372 0.0816926 0 9.87438e-17 6.37349e-17 0 -0.000204401 0 0
50 1 0.015 -0.0444444 0.0815383 0 1.04577e-16 2.15507e-16 0 -0.000209913 0 0
4 1 0.015 -0.018377 0.0880826 0 -6.3006e-17 1.7345e-16 0 -0.000184468 0 0
89 1 0.015 0.0313412 0.0873215 0 3.97804e-17 -8.9449e-17 0 -0.000203656 0 0
13 1 0.015 0.0844909 0.0841229 0 -8.51756e-17 -2.39883e-17 0 -0.000207005 0 0
55 1 0.015 0.121869 0.0815031 0 -1.89926e-17 -1.06894e-16 0 -0.000305905 0 0
40 1 0.015 -0.0680667 0.0976743 0 1.82605e-17 3.22677e-17 0 -0.000100945 0 0
97 1 0.015 0.00649681 0.0985342 0 -2.31872e-17 -5.96049e-17 0 -0.000362709 0 0
74 1 0.015 0.0623635 0.101322 0 4.67837e-17 -1.67043e-16 0 -0.000211191 0 0
64 1 0.015 0.10464 0.102455 0 -3.95023e-18 -8.9702e-19 0 -0.000312573 0 0
21 1 0.015 -0.0942529 0.110489 0 2.79717e-18 5.43622e-17 0 -0.000181774 0 0
32 1 0.015 -0.0424769 0.109919 0 -9.11844e-17 -1.43696e-16 0 -0.000150922 0 0
6 1 0.015 -0.0151817 0.116841 0 4.34784e-17 -1.45985e-16 0 -0.000138452 0 0
86 1 0.015 0.0127101 0.123263 0 4.01936e-17 -8.79738e-17 0 -0.000365197 0 0
66 1 0.015 0.038308 0.1143 0 -2.62748e-17 -1.27392e-17 0 -0.000224884 0 0
71 1 0.015 0.0835145 0.119567 0 2.88675e-17 1.58077e-16 0 -0.00026046 0 0
111 1 0.015 -0.0720173 0.126175 0 7.14869e-17 -1.07849e-16 0 -0.000247471 0 0
108 1 0.015 -0.0475994 0.137734 0 1.11626e-16 -1.56583e-16 0 -0.000284235 0 0
59 1 0.015 0.0594659 0.132868 0 9.35196e-17 -2.34491e-17 0 -0.000213187 0 0
39 1 0.015 -0.0214882 0.144159 0 -1.21322e-16 -3.04267e-17 0 -0.000297014 0 0
35 1 0.015 0.00527152 0.147608 0 2.43181e-17 1.52197e-16 0 -0.000361763 0 0
79 1 0.015 0.0331678 0.142326 0 -2.38878e-17 1.10448e-16 0 -0.000166754 0 0
