ITEM: TIMESTEP
0
ITEM: NUMBER OF ATOMS
112
ITEM: BOX BOUNDS ff ff ff
-2.5000000000000000e-01 2.5000000000000000e-01
-2.5000000000000000e-01 2.5000000000000000e-01
-1.0000000000000001e-01 1.0000000000000001e-01
ITEM: ATOMS id type radius x y z fx fy fz v_pressure c_bendingE c_stretchingE
93 1 0.015 0.0700521 -0.110913 0 -0.149616 -0.107347 0 -0.00149644 0 0
56 1 0.015 -0.0820847 -0.109288 0 0.0512239 -0.197958 0 -0.00123999 0 0
61 1 0.015 0.0119328 -0.101886 0 -0.0616889 -0.717981 0 -0.00187273 0 0
98 1 0.015 0.0136362 -0.0952438 0 0.176946 0.122946 0 -0.00128682 0 0
103 1 0.015 0.0106404 -0.0969921 0 -0.535331 -0.0740663 0 -0.00114245 0 0
43 1 0.015 0.0863441 -0.100297 0 0.0165696 0.168141 0 -0.00114503 0 0
76 1 0.015 0.0884825 -0.108264 0 0.153841 -0.238017 0 -0.00137619 0 0
9 1 0.015 -0.104425 -0.0922859 0 -0.217515 -0.00848611 0 -0.00127967 0 0
37 1 0.015 -0.0889748 -0.0903444 0 -0.144406 0.250894 0 -0.00135687 0 0
88 1 0.015 -0.0847188 -0.0933229 0 0.304703 -0.0573704 0 -0.00132188 0 0
24 1 0.015 -0.0315866 -0.0867656 0 0 0 0 -0 0 0
20 1 0.015 0.0170055 -0.090411 0 0.394519 0.375158 0 -0.00162358 0 0
51 1 0.015 0.0517912 -0.0826387 0 -0.164394 -0.309746 0 -0.00178877 0 0
31 1 0.015 0.0643051 -0.089175 0 0.0297146 -0.313943 0 -0.00146106 0 0
53 1 0.015 0.0729582 -0.0798052 0 0.306476 -0.0330414 0 -0.001398 0 0
68 1 0.015 0.0939697 -0.0818998 0 -0.0929873 0.02211 0 -0.00110146 0 0
91 1 0.015 0.104716 -0.07873 0 0.193677 0.060124 0 -0.00118505 0 0
90 1 0.015 -0.0760849 -0.0661231 0 -0.0519237 -0.0337517 0 -0.000633572 0 0
33 1 0.015 -0.00788496 -0.0645757 0 -0.584677 0.0722673 0 -0.000873376 0 0
92 1 0.015 -0.00622102 -0.0649171 0 0.0751973 -0.0604025 0 -0.000926841 0 0
47 1 0.015 0.00330384 -0.0667449 0 0.136923 -0.0228894 0 -0.00163584 0 0
45 1 0.015 0.0193466 -0.0726071 0 0.402698 -0.0831729 0 -0.000938865 0 0
46 1 0.015 0.0158048 -0.0707304 0 -0.0834761 0.168434 0 -0.00102409 0 0
25 1 0.015 0.0574634 -0.064642 0 -0.0435179 0.3008 0 -0.00127226 0 0
52 1 0.015 0.0479592 -0.0766829 0 -0.389835 0.129518 0 -0.00117842 0 0
112 1 0.015 0.0660634 -0.0720771 0 0.191501 0.226275 0 -0.00165679 0 0
28 1 0.015 -0.0603357 -0.053432 0 -0.0782915 0.0419603 0 -0.00128284 0 0
96 1 0.015 -0.0453635 -0.0535369 0 0.0745073 -0.0236847 0 -0.0017895 0 0
109 1 0.015 -0.0259161 -0.0469797 0 0.0200939 0.0306291 0 -0.000641264 0 0
22 1 0.015 0.031892 -0.055081 0 -0.0517979 0.0249281 0 -0.000962623 0 0
99 1 0.015 -0.0797961 -0.0335915 0 -0.0817177 -0.177903 0 -0.00107103 0 0
29 1 0.015 0.00396325 -0.0435314 0 0.0288237 -0.0949451 0 -0.00110524 0 0
30 1 0.015 0.0492002 -0.0435603 0 0.0342363 -0.298373 0 -0.000796457 0 0
107 1 0.015 0.0492275 -0.0423021 0 0.05022 0.434076 0 -0.000754503 0 0
44 1 0.015 -0.0738643 -0.0190153 0 0.0238311 0.078039 0 -0.00211854 0 0
16 1 0.015 -0.0598532 -0.0220421 0 0.189065 -0.0107548 0 -0.000822621 0 0
84 1 0.015 -0.0302546 -0.018203 0 -0.0264148 0.0150494 0 -0.000263066 0 0
63 1 0.015 -0.00806952 -0.0291743 0 -0.130573 0.043656 0 -0.0011727 0 0
27 1 0.015 0.0103609 -0.0304472 0 0.1648 0.0676785 0 -0.00110212 0 0
8 1 0.015 0.0356871 -0.0191001 0 0.021542 0.00228456 0 -0.000387393 0 0
106 1 0.015 0.0856493 -0.0214251 0 0.0433014 -0.114277 0 -0.00111123 0 0
85 1 0.015 0.107476 -0.0229344 0 -0.0570135 0.234411 0 -0.00157434 0 0
10 1 0.015 0.110595 -0.0294998 0 0.130234 -0.243806 0 -0.00119274 0 0
41 1 0.015 -0.0865141 -0.0112049 0 -0.0713983 0.0492366 0 -0.0012345 0 0
110 1 0.015 0.00289631 -0.00879732 0 -0.153851 -0.163394 0 -0.00139579 0 0
58 1 0.015 0.0163379 -0.00397431 0 0.221374 -0.159699 0 -0.000960173 0 0
87 1 0.015 0.0751058 -0.0124645 0 -0.148419 0.037507 0 -0.00101979 0 0
78 1 0.015 -0.112347 0.0127806 0 -0.45589 -0.50636 0 -0.00199589 0 0
73 1 0.015 -0.0995084 0.00209625 0 0.0520214 -0.228961 0 -0.00112223 0 0
42 1 0.015 -0.00666223 0.00687838 0 -0.165925 -0.123897 0 -0.00128663 0 0
94 1 0.015 0.0125254 0.00460908 0 0.0727929 0.220616 0 -0.00169659 0 0
95 1 0.015 0.0447479 0.0151744 0 -0.0565099 -0.0980834 0 -0.00130893 0 0
75 1 0.015 0.061366 0.0123847 0 -0.179916 -0.23638 0 -0.000920068 0 0
60 1 0.015 0.0699269 0.0124389 0 0.0789718 -0.193106 0 -0.000955879 0 0
1 1 0.015 0.0904266 0.0038401 0 0.0163542 -0.311146 0 -0.00148148 0 0
23 1 0.015 0.0987782 0.0115367 0 0.33374 -0.0854232 0 -0.00138718 0 0
15 1 0.015 -0.0970282 0.0265518 0 0.759234 0.402018 0 -0.00175015 0 0
17 1 0.015 -0.0994277 0.0240656 0 0.489131 -0.160207 0 -0.00172007 0 0
48 1 0.015 -0.106366 0.0229205 0 -0.611919 -0.30884 0 -0.0014641 0 0
54 1 0.015 -0.105245 0.0232463 0 0.104681 -0.0754961 0 -0.0014838 0 0
83 1 0.015 -0.109345 0.026434 0 -0.861681 0.56887 0 -0.00151542 0 0
26 1 0.015 -0.0830745 0.0232404 0 0.340938 -0.0601802 0 -0.00113497 0 0
2 1 0.015 -0.053332 0.0179907 0 -0.0268243 -0.186395 0 -0.00126726 0 0
19 1 0.015 -0.062238 0.0269267 0 -0.108598 0.140761 0 -0.00155169 0 0
69 1 0.015 -0.0395735 0.0246899 0 -0.129946 0.13139 0 -0.00157629 0 0
34 1 0.015 -0.0274764 0.0176579 0 0.0253646 -0.331884 0 -0.00125992 0 0
72 1 0.015 -0.0261283 0.0239237 0 0.17338 0.282197 0 -0.000845764 0 0
5 1 0.015 -0.00338828 0.0172373 0 0.0703702 0.203891 0 -0.000860729 0 0
102 1 0.015 0.0310281 0.0163981 0 -0.101732 0.0596083 0 -0.00107402 0 0
77 1 0.015 0.062582 0.0278487 0 -0.0230129 -0.330528 0 -0.00139761 0 0
18 1 0.015 0.0883554 0.0230169 0 0.123064 0.193713 0 -0.00110673 0 0
70 1 0.015 0.0840561 0.0170454 0 -0.135284 -0.117569 0 -0.00116364 0 0
81 1 0.015 0.109907 0.0294224 0 0.133959 0.0511948 0 -0.00078415 0 0
36 1 0.015 -0.0992846 0.0429681 0 0.0386421 0.385378 0 -0.00138383 0 0
65 1 0.015 -0.00386445 0.0410995 0 -0.175049 -0.105385 0 -0.000988401 0 0
49 1 0.015 0.00639511 0.0442931 0 -0.0323696 -0.00267152 0 -0.00146122 0 0
101 1 0.015 0.0218443 0.0453885 0 0.177153 -0.335293 0 -0.000649356 0 0
14 1 0.015 0.0503836 0.0363273 0 -0.49666 0.120718 0 -0.0010376 0 0
80 1 0.015 0.060939 0.0346603 0 -0.218135 0.039899 0 -0.00113376 0 0
7 1 0.015 0.0718925 0.0382778 0 0.462558 0.10232 0 -0.00122909 0 0
11 1 0.015 0.0663843 0.0410074 0 0.0328889 0.385986 0 -0.00107303 0 0
100 1 0.015 0.0882312 0.035364 0 0.140893 0.235076 0 -0.00103135 0 0
67 1 0.015 -0.0346693 0.0513673 0 -0.0280973 -0.0538305 0 -0.000600529 0 0
4 1 0.015 -0.014258 0.0566225 0 -0.00788326 0.0986893 0 -0.00109786 0 0
89 1 0.015 0.021361 0.048964 0 0.050264 0.314568 0 -0.000942972 0 0
66 1 0.015 0.0631791 0.0572367 0 -0.0679654 0.0807606 0 -0.00114802 0 0
57 1 0.015 0.0956014 0.0577995 0 -0.141276 -0.00978737 0 -0.0011309 0 0
38 1 0.015 0.111343 0.0574308 0 0.147613 -0.0899337 0 -0.00133472 0 0
3 1 0.015 -0.090454 0.0644493 0 -0.112689 -0.112026 0 -0.00115072 0 0
104 1 0.015 -0.082789 0.072757 0 0.134508 0.138515 0 -0.000477147 0 0
12 1 0.015 -0.0561153 0.0645719 0 -0.170666 -0.264223 0 -0.000669004 0 0
50 1 0.015 -0.0538134 0.0688646 0 0.0920738 0.269696 0 -0.000609425 0 0
32 1 0.015 -0.0317374 0.0763659 0 0.0426071 0.0570976 0 -0.000600897 0 0
97 1 0.015 0.0229592 0.0749532 0 -0.125108 0.041947 0 -0.000944841 0 0
62 1 0.015 0.0407515 0.0632896 0 0.150373 -0.310174 0 -0.000695146 0 0
86 1 0.015 0.039837 0.0662682 0 -0.0215199 0.31728 0 -0.000860455 0 0
13 1 0.015 0.0699632 0.0671915 0 0.0971552 0.175651 0 -0.000611848 0 0
55 1 0.015 0.108165 0.0756567 0 0.0396196 0.0962375 0 -0.00137061 0 0
82 1 0.015 -0.105171 0.0879436 0 0.184142 -0.215365 0 -0.000585658 0 0
105 1 0.015 -0.108524 0.0915747 0 -0.209865 0.223255 0 -0.00079634 0 0
21 1 0.015 -0.0816733 0.102185 0 -0.280725 -0.0258634 0 -0.000894173 0 0
40 1 0.015 -0.0650773 0.0964148 0 0.13877 -0.233737 0 -0.000986442 0 0
111 1 0.015 -0.0713819 0.105849 0 0.0552765 0.230432 0 -0.00170374 0 0
39 1 0.015 -0.0408795 0.106771 0 0.22302 0.0314341 0 -0.00125015 0 0
108 1 0.015 -0.046342 0.106452 0 -0.244502 0.0148011 0 -0.00110042 0 0
6 1 0.015 -0.0219049 0.105168 0 0.119592 -0.00909849 0 -0.00122735 0 0
35 1 0.015 0.0207391 0.0970187 0 -0.0113179 0.0519731 0 -0.000675806 0 0
59 1 0.015 0.0592786 0.103613 0 -0.0258781 0.0443346 0 -0.00202646 0 0
79 1 0.015 0.0484954 0.101774 0 -0.213391 -0.0324282 0 -0.000727855 0 0
71 1 0.015 0.0771132 0.106727 0 0.157409 0.291677 0 -0.00117882 0 0
74 1 0.015 0.0747331 0.100277 0 0.0098406 -0.273955 0 -0.00133851 0 0
64 1 0.015 0.0975839 0.0955672 0 0.054764 0.0151319 0 -0.00102494 0 0
