ITEM: TIMESTEP
250000
ITEM: NUMBER OF ATOMS
5843
ITEM: BOX BOUNDS ff ff ff
-2.5000000000000000e-01 2.5000000000000000e-01
-2.5000000000000000e-01 2.5000000000000000e-01
-1.0000000000000001e-01 1.0000000000000001e-01
ITEM: ATOMS id type radius x y z fx fy fz v_pressure c_bendingE c_stretchingE
2545 2 0.002 -0.0173246 -0.141976 -0.000266797 -3.0593e-10 -9.87848e-11 7.6275e-10 3.05266e-06 2.58392e-09 9.37614e-09
2465 2 0.002 -0.0207817 -0.143989 -1.2003e-05 -2.79614e-10 -1.97803e-10 -1.12144e-09 3.13116e-06 2.34595e-09 1.74172e-09
2703 2 0.002 -0.0103959 -0.145981 -0.0001989 1.06344e-10 3.05936e-10 1.12627e-09 6.54894e-06 2.2485e-09 1.0592e-08
2862 2 0.002 -0.00347462 -0.145981 -0.000198568 2.08415e-10 5.02523e-10 4.25669e-10 3.28783e-06 2.5122e-09 1.07947e-08
2863 2 0.002 -0.00349053 -0.141967 -0.000597629 3.65446e-10 9.3005e-10 -2.85013e-11 2.65084e-06 1.21853e-09 1.69814e-08
2783 2 0.002 -0.00694343 -0.143975 -0.000416462 1.94536e-10 4.47397e-10 -2.79094e-10 2.70225e-06 2.54903e-09 2.00502e-08
2704 2 0.002 -0.0104109 -0.141964 -0.000609713 -9.80714e-11 2.50717e-10 -1.2337e-09 7.82879e-06 1.34042e-09 1.64136e-08
2624 2 0.002 -0.0138629 -0.143978 -0.000284438 -4.05797e-11 9.87928e-11 -7.087e-11 3.42711e-06 2.53695e-09 1.19829e-08
2942 2 0.002 -1.92475e-05 -0.143977 -0.000247138 3.90576e-10 9.00406e-10 1.18895e-09 2.31929e-06 2.77754e-09 1.23496e-08
3022 2 0.002 0.00344456 -0.141981 -0.000133604 2.36293e-10 1.96456e-09 6.11052e-09 3.15178e-06 3.35533e-09 3.64617e-08
3655 2 0.002 0.03119 -0.14198 -0.000252249 3.57097e-10 9.19972e-10 -1.10544e-09 6.24344e-06 1.97717e-09 8.66966e-09
3340 2 0.002 0.0173055 -0.141992 -0.000100234 1.10326e-09 1.39792e-09 -2.70824e-09 6.07377e-06 1.19226e-09 6.66776e-09
3498 2 0.002 0.0242553 -0.141984 -0.000256182 7.82767e-10 1.5508e-09 1.26563e-09 2.78476e-06 9.40759e-10 6.10573e-09
3419 2 0.002 0.0207846 -0.143987 -9.50597e-05 5.06275e-10 1.00349e-09 -8.69262e-11 4.21449e-06 8.06224e-10 2.78487e-09
3576 2 0.002 0.0277183 -0.143985 -0.000138455 2.28867e-10 9.18505e-10 1.57028e-09 4.98066e-06 1.13571e-09 4.99168e-09
63 1 0.015 -0.0572089 -0.134807 -0.00109052 4.58044e-08 1.91547e-08 9.21072e-09 -1.94826e-06 0 4.20581e-07
1622 2 0.002 -0.0588966 -0.133986 -8.41734e-05 -2.43208e-10 1.59011e-09 2.69281e-09 1.92374e-06 6.30897e-09 1.18129e-08
1697 2 0.002 -0.0554458 -0.131989 -9.9199e-05 -1.35771e-09 3.02077e-09 3.29791e-09 7.49746e-06 1.11451e-08 4.42174e-07
1696 2 0.002 -0.0554255 -0.135992 -6.53056e-05 -1.53905e-10 9.76998e-10 -6.14974e-09 2.68277e-06 6.30942e-09 1.28828e-09
2547 2 0.002 -0.0173606 -0.133942 -0.000845412 -1.20678e-09 -3.76345e-10 1.63253e-09 9.53606e-06 2.10076e-09 1.74772e-08
2468 2 0.002 -0.0208091 -0.131951 -0.000384435 -1.11257e-09 -1.09707e-09 2.87451e-09 4.44241e-06 1.76945e-09 1.55496e-08
2548 2 0.002 -0.0173765 -0.129924 -0.00104009 -1.8208e-09 -3.77792e-10 -9.28579e-10 1.17477e-05 4.11051e-09 2.58413e-08
2549 2 0.002 -0.0173882 -0.125912 -0.00102558 -1.62066e-09 1.66573e-10 -1.14578e-09 1.29557e-05 5.92401e-09 3.04248e-08
2546 2 0.002 -0.0173424 -0.137959 -0.000565426 -1.0674e-09 -4.34459e-10 -9.74083e-10 3.81865e-06 1.19433e-09 1.16966e-08
2467 2 0.002 -0.0208017 -0.135967 -0.000263326 -1.67229e-09 -1.04953e-09 -2.22371e-09 3.80928e-06 1.1182e-09 1.34092e-08
2469 2 0.002 -0.0208154 -0.127939 -0.000373868 -1.25479e-09 -1.009e-09 -2.5681e-10 9.86368e-06 1.71919e-09 1.70443e-08
2466 2 0.002 -0.0207921 -0.139979 -0.000104371 -7.13369e-10 -5.17026e-10 1.66532e-09 5.8237e-06 9.85325e-10 7.6969e-09
85 1 0.015 -0.00911124 -0.126133 -0.00488714 3.95587e-08 -4.4852e-08 -1.07678e-08 -5.78229e-06 0 1.21634e-06
2708 2 0.002 -0.0105468 -0.12587 -0.00277559 -1.71826e-09 8.94022e-10 1.33289e-09 3.50151e-05 5.95129e-08 6.45725e-07
2867 2 0.002 -0.00356408 -0.125908 -0.0022073 -2.20529e-09 9.84741e-10 1.58589e-09 1.90051e-05 3.40422e-08 5.91483e-08
2627 2 0.002 -0.0139277 -0.131923 -0.00151204 -1.64917e-09 7.82304e-11 -1.40967e-10 1.28487e-05 6.02082e-09 2.89193e-08
2628 2 0.002 -0.0139568 -0.127898 -0.00183192 -1.89214e-09 3.56398e-10 -2.17235e-10 1.75055e-05 2.54915e-08 5.64369e-08
2706 2 0.002 -0.0104594 -0.133932 -0.00164845 -1.25565e-09 3.51854e-10 -9.22517e-10 1.30563e-05 5.35331e-09 3.64492e-08
2707 2 0.002 -0.0104988 -0.12991 -0.00224159 -1.72505e-09 5.81228e-10 7.02734e-10 1.88648e-05 4.34507e-08 6.17279e-08
2786 2 0.002 -0.00701185 -0.131929 -0.00210316 -1.24062e-09 4.08577e-10 -2.41472e-09 8.49306e-06 1.83318e-08 6.75645e-08
2787 2 0.002 -0.00704581 -0.127903 -0.00280125 -1.81951e-09 8.92119e-10 2.09366e-09 3.13378e-05 5.00489e-08 4.6831e-07
2866 2 0.002 -0.00355493 -0.129929 -0.00211589 -9.21419e-10 7.14026e-10 -3.48814e-09 8.60386e-06 1.50505e-08 7.20764e-08
2946 2 0.002 -8.59036e-05 -0.12794 -0.00172232 -1.18357e-09 1.25623e-09 -2.1322e-09 1.24965e-05 5.71842e-09 3.08385e-08
2784 2 0.002 -0.00696107 -0.139959 -0.000911056 -5.41228e-11 6.07497e-10 -8.74127e-10 4.6394e-06 1.34635e-09 2.44965e-08
2625 2 0.002 -0.0138769 -0.139959 -0.000671781 -5.2011e-10 3.75289e-11 -6.34391e-10 7.75467e-06 1.42273e-09 1.45005e-08
2705 2 0.002 -0.0104313 -0.137949 -0.00110241 -4.64746e-10 7.39699e-10 2.18024e-09 9.73283e-06 1.95369e-09 2.37982e-08
2785 2 0.002 -0.00698343 -0.135945 -0.00146824 -6.41811e-10 6.60876e-10 -1.22394e-09 5.96556e-06 3.19999e-09 3.81406e-08
2864 2 0.002 -0.00350795 -0.137958 -0.0010942 -1.36951e-10 1.5217e-09 2.8078e-09 2.52491e-06 1.34042e-09 2.91382e-08
2626 2 0.002 -0.0138997 -0.135942 -0.00109439 -1.08963e-09 4.43362e-11 -1.26085e-10 9.81901e-06 1.94778e-09 1.94317e-08
2865 2 0.002 -0.00353088 -0.133948 -0.00163326 -6.29144e-10 1.16879e-09 -2.25247e-10 4.23149e-06 4.61503e-09 4.31731e-08
2945 2 0.002 -7.59709e-05 -0.131953 -0.00152348 -5.89256e-10 1.52428e-09 2.13685e-10 5.88263e-06 3.46962e-09 3.91749e-08
2944 2 0.002 -5.50891e-05 -0.135963 -0.00110266 -9.19674e-11 1.90598e-09 2.96193e-09 2.56519e-06 1.19219e-09 3.34484e-08
2943 2 0.002 -3.2491e-05 -0.139969 -0.000636986 9.76233e-10 6.57234e-10 -6.18267e-09 3.04306e-06 8.63886e-10 2.64036e-08
3023 2 0.002 0.0034193 -0.137976 -0.000567199 1.05621e-09 1.39878e-09 -3.05223e-09 3.06535e-06 1.79233e-09 2.94876e-08
3103 2 0.002 0.00687815 -0.135989 -0.000556414 1.10808e-09 2.25342e-09 1.70946e-10 4.24088e-06 1.53751e-09 1.9758e-08
3104 2 0.002 0.00687079 -0.131985 -0.000915534 6.33782e-10 2.12433e-09 -1.21205e-09 3.70926e-06 2.19144e-09 1.27086e-08
3024 2 0.002 0.00340128 -0.133973 -0.00100541 3.50648e-10 1.83416e-09 -2.85093e-11 2.30034e-06 1.64725e-09 2.60611e-08
3184 2 0.002 0.0103504 -0.129992 -0.000869681 7.70582e-10 2.53187e-09 5.8218e-10 0.00586217 2.45051e-09 6.28385e-09
3263 2 0.002 0.0138308 -0.131996 -0.000753183 1.59468e-09 3.04277e-09 -2.41474e-09 5.71223e-06 1.45035e-09 5.71323e-09
3183 2 0.002 0.0103501 -0.133995 -0.000630546 1.39366e-09 2.76973e-09 1.54483e-09 6.82168e-06 1.57968e-09 8.48563e-09
3025 2 0.002 0.0033919 -0.129966 -0.00128462 -6.85112e-10 1.69803e-09 2.11804e-09 9.03964e-06 2.88032e-09 1.91779e-08
3026 2 0.002 0.00339128 -0.125958 -0.00127898 -1.63066e-09 1.09298e-09 2.53856e-09 9.05119e-06 3.16628e-09 1.50672e-08
3105 2 0.002 0.00687012 -0.127978 -0.00104616 -2.46906e-10 1.78526e-09 -9.4745e-10 6.81699e-06 2.99406e-09 8.96861e-09
3264 2 0.002 0.0138353 -0.127993 -0.000875398 9.87947e-10 2.91935e-09 6.69891e-10 0.00504726 2.65424e-09 5.11438e-09
3185 2 0.002 0.0103552 -0.125988 -0.000853486 -4.60827e-11 1.8687e-09 1.89218e-09 5.42517e-06 3.31276e-09 5.74504e-09
3102 2 0.002 0.00689243 -0.139994 -6.34772e-05 1.11784e-09 1.9946e-09 1.46197e-09 5.22046e-06 1.16315e-08 3.4658e-08
3182 2 0.002 0.0103546 -0.137997 -0.000225404 1.55723e-09 2.07603e-09 -2.46208e-09 8.21162e-06 2.02205e-09 1.38564e-08
3262 2 0.002 0.013829 -0.135995 -0.000450427 1.90497e-09 3.14185e-09 2.8534e-09 6.49606e-06 8.58314e-10 6.82208e-09
3261 2 0.002 0.0138308 -0.139994 -7.37864e-05 1.4397e-09 1.6528e-09 -4.6825e-09 7.10205e-06 4.0436e-09 8.27941e-09
3501 2 0.002 0.0242741 -0.129977 -0.00123504 1.61117e-09 4.24534e-09 -2.32956e-09 0.00686349 1.28322e-09 1.06714e-08
3579 2 0.002 0.0277466 -0.131969 -0.00125034 1.37631e-09 3.56729e-09 -3.62858e-09 7.72126e-06 8.56492e-10 1.2602e-08
3423 2 0.002 0.0207983 -0.127985 -0.00112238 1.54344e-09 4.21156e-09 -9.93131e-10 0.00583816 1.93286e-09 8.10373e-09
3421 2 0.002 0.0207869 -0.135985 -0.000651662 1.81604e-09 3.10415e-09 -3.24087e-09 6.0946e-06 2.94299e-10 7.51676e-09
3499 2 0.002 0.0242607 -0.13798 -0.00058752 1.38736e-09 2.50809e-09 -3.10896e-09 6.23424e-06 2.33993e-10 7.30563e-09
3577 2 0.002 0.0277292 -0.139976 -0.000456786 8.2851e-10 1.7813e-09 -2.0624e-09 6.07671e-06 6.11434e-10 7.02312e-09
3343 2 0.002 0.0173148 -0.129993 -0.00091389 1.74669e-09 3.78217e-09 1.69466e-09 0.00541941 1.59606e-09 6.30819e-09
3344 2 0.002 0.0173211 -0.125991 -0.0009415 1.05029e-09 3.46068e-09 -4.71492e-10 2.50459e-06 2.83937e-09 5.89495e-09
3422 2 0.002 0.0207927 -0.131987 -0.0009444 2.01662e-09 4.14853e-09 1.50177e-09 0.00606981 8.20709e-10 8.15585e-09
3500 2 0.002 0.0242678 -0.133979 -0.000936113 1.88505e-09 4.02763e-09 2.58964e-09 0.00666369 4.76765e-10 9.21329e-09
3578 2 0.002 0.0277387 -0.135972 -0.000852265 1.40265e-09 3.37876e-09 2.94964e-09 7.02995e-06 4.70553e-10 9.62398e-09
3502 2 0.002 0.0242791 -0.125972 -0.00139923 1.31278e-09 4.4825e-09 -4.49423e-11 0.00704713 2.50064e-09 1.18134e-08
3580 2 0.002 0.0277524 -0.127962 -0.00158424 1.35121e-09 4.37731e-09 5.05169e-10 8.39728e-06 2.03003e-09 1.56989e-08
3342 2 0.002 0.01731 -0.133992 -0.000688962 1.93057e-09 3.29036e-09 -2.74358e-09 5.92184e-06 6.26574e-10 6.86373e-09
3656 2 0.002 0.0312035 -0.13797 -0.000668399 7.98334e-10 2.2574e-09 1.8496e-09 7.4395e-06 7.04831e-10 1.15169e-08
3657 2 0.002 0.0312135 -0.133964 -0.00114278 1.02882e-09 2.53539e-09 -3.66891e-09 8.38925e-06 6.08199e-10 1.52256e-08
3658 2 0.002 0.0312214 -0.129956 -0.00161152 1.21468e-09 3.85895e-09 2.34261e-09 3.17495e-06 1.28466e-09 1.98884e-08
3341 2 0.002 0.0173065 -0.13799 -0.000375081 1.92064e-09 3.00241e-09 3.1061e-09 6.16972e-06 6.51423e-10 7.02199e-09
3420 2 0.002 0.0207826 -0.139984 -0.000339998 1.45908e-09 2.46012e-09 2.37468e-09 5.69772e-06 4.37584e-10 5.83957e-09
3659 2 0.002 0.031226 -0.125942 -0.00201507 6.35833e-10 3.70428e-09 -1.69851e-09 5.52033e-06 3.41344e-09 2.61744e-08
3734 2 0.002 0.0346723 -0.135965 -0.000902415 6.35891e-10 1.52164e-09 -2.36916e-09 9.0382e-06 6.81924e-10 2.14928e-08
3889 2 0.002 0.0415836 -0.135966 -0.000794573 2.44182e-10 7.36967e-10 -7.55094e-11 4.86862e-06 1.31467e-09 2.68215e-08
3966 2 0.002 0.0450436 -0.133966 -0.000930403 3.2287e-10 5.55695e-10 8.47313e-11 3.37668e-06 9.36156e-10 2.9987e-08
3733 2 0.002 0.03466 -0.139976 -0.000371883 2.94391e-10 1.15161e-09 1.81334e-09 8.35743e-06 3.77722e-09 1.78903e-08
3811 2 0.002 0.0381216 -0.137974 -0.000561705 2.25094e-10 8.87998e-10 2.89849e-10 1.01862e-05 3.92917e-09 3.47517e-08
3888 2 0.002 0.0415709 -0.139979 -0.000263374 7.8729e-12 3.68159e-10 2.46933e-10 8.45602e-06 3.6202e-09 1.71954e-08
3965 2 0.002 0.0450369 -0.137979 -0.000389226 1.18026e-10 3.11181e-10 -2.83006e-11 4.59938e-06 4.08159e-09 2.18493e-08
3891 2 0.002 0.0416078 -0.127936 -0.00205558 2.76353e-10 8.98302e-10 -8.96541e-10 7.07416e-06 3.12357e-09 5.52181e-08
3736 2 0.002 0.0346909 -0.12794 -0.0020245 5.27962e-10 2.66914e-09 -1.48856e-09 6.12717e-06 2.09746e-09 3.4706e-08
3813 2 0.002 0.0381467 -0.129945 -0.00180131 4.64072e-10 1.85472e-09 1.10316e-10 6.24638e-06 1.69379e-09 4.35637e-08
3890 2 0.002 0.0415954 -0.131954 -0.00140766 3.66314e-10 1.11739e-09 5.63759e-10 3.80109e-06 1.17984e-09 3.83991e-08
3967 2 0.002 0.0450524 -0.129951 -0.00151114 4.27571e-10 5.43349e-10 -3.84838e-10 2.88746e-06 1.44671e-09 3.74127e-08
3735 2 0.002 0.0346828 -0.131955 -0.00146686 8.42628e-10 2.78457e-09 1.97038e-09 3.42784e-06 8.05065e-10 2.66592e-08
3812 2 0.002 0.0381352 -0.13396 -0.00117355 4.99849e-10 1.34748e-09 -7.73573e-10 1.0649e-05 6.14686e-10 3.43287e-08
3968 2 0.002 0.045066 -0.125933 -0.00208893 1.1074e-10 3.89859e-10 -2.72789e-11 4.74386e-06 4.28594e-09 4.80303e-08
3814 2 0.002 0.0381565 -0.125923 -0.00245064 1.12753e-10 1.65856e-09 -1.20897e-09 1.60708e-05 5.47122e-09 6.31776e-08
4042 2 0.002 0.0484972 -0.131966 -0.00093843 3.88812e-10 5.44011e-10 1.05403e-09 2.37837e-06 1.41851e-09 2.62983e-08
4041 2 0.002 0.0484961 -0.135981 -0.000428949 2.81332e-10 2.4459e-10 -3.57732e-10 2.38732e-06 4.61155e-09 2.62317e-08
4043 2 0.002 0.0485062 -0.127951 -0.00142051 5.58102e-10 2.47845e-10 -9.39283e-10 2.71313e-06 1.75777e-09 2.95617e-08
4119 2 0.002 0.0519587 -0.125954 -0.00113377 5.05164e-10 4.143e-10 -3.73578e-10 3.23775e-06 1.66105e-09 2.29894e-08
4118 2 0.002 0.0519518 -0.129966 -0.000811293 4.49681e-10 6.67052e-10 1.87945e-09 4.19478e-06 1.41533e-09 1.74693e-08
4194 2 0.002 0.0554088 -0.127972 -0.000522689 8.46039e-10 8.08514e-10 -4.04959e-10 7.66366e-06 9.75025e-10 1.68594e-08
4117 2 0.002 0.051948 -0.13398 -0.000423041 5.58108e-10 2.11815e-10 -1.30498e-09 2.58766e-06 3.74496e-09 1.77335e-08
4192 2 0.002 0.0554153 -0.135987 -0.000116507 2.47529e-10 2.63436e-10 2.00208e-10 2.25383e-06 3.32467e-09 4.64535e-09
4193 2 0.002 0.0554075 -0.131976 -0.000301002 7.78186e-10 5.2665e-10 -1.55876e-09 2.94951e-06 2.62189e-09 8.29348e-09
4269 2 0.002 0.0588624 -0.125986 -0.000144126 1.03414e-09 1.28517e-09 -7.83422e-10 6.91041e-06 1.89754e-09 1.49004e-08
938 2 0.002 -0.0935228 -0.109989 -0.000321448 -1.14134e-09 -3.08043e-10 2.68273e-10 1.59166e-06 3.40089e-09 1.0793e-08
1068 2 0.002 -0.0865942 -0.109994 -0.00034146 -2.4214e-09 -9.55012e-10 -1.66578e-09 2.21795e-06 2.58019e-09 1.36559e-08
1002 2 0.002 -0.0900636 -0.111987 -0.000199269 -1.38574e-09 -4.51842e-10 2.97165e-10 2.11628e-06 3.27786e-09 4.83151e-09
2470 2 0.002 -0.0208148 -0.123936 -0.000169684 8.54131e-11 -6.72279e-10 2.54645e-09 5.36035e-06 1.3371e-09 2.35772e-08
2550 2 0.002 -0.0173774 -0.121915 -0.000694191 -1.51956e-09 1.36214e-09 -3.78054e-09 1.30993e-05 3.64406e-09 3.77917e-08
2551 2 0.002 -0.017359 -0.117926 -0.000168098 -5.75261e-10 2.404e-09 -2.87259e-09 1.13185e-05 2.04634e-09 2.54416e-08
2630 2 0.002 -0.0139307 -0.119897 -0.00103891 -1.13284e-09 1.95287e-09 8.75244e-10 1.44302e-05 6.3348e-09 4.1986e-08
2788 2 0.002 -0.00704633 -0.123864 -0.00259143 -2.28972e-09 1.04489e-09 1.9374e-09 3.16042e-05 4.83368e-08 4.54041e-07
2789 2 0.002 -0.00701364 -0.119894 -0.00161088 -2.16475e-09 2.58279e-09 -2.72225e-09 1.78894e-05 1.53887e-08 6.87912e-08
2868 2 0.002 -0.00355616 -0.121908 -0.00176097 -2.63807e-09 1.07101e-09 1.28751e-09 1.76054e-05 1.29339e-08 6.47597e-08
2710 2 0.002 -0.0104627 -0.117899 -0.00103624 -1.53383e-09 2.65835e-09 -2.07631e-10 1.46511e-05 5.34146e-09 4.83395e-08
2629 2 0.002 -0.0139588 -0.123887 -0.00167845 -1.07287e-09 7.43577e-10 2.81415e-09 1.85195e-05 2.39882e-08 7.38067e-08
2709 2 0.002 -0.0105011 -0.121874 -0.00192438 -1.61592e-09 1.20746e-09 3.41437e-09 2.03532e-05 4.11398e-08 7.93906e-08
2947 2 0.002 -8.48868e-05 -0.123934 -0.00154715 -1.80033e-09 1.1986e-09 -2.66505e-09 1.28283e-05 5.02e-09 3.09091e-08
2869 2 0.002 -0.00352948 -0.117936 -0.000994197 -2.09708e-09 1.36177e-09 -7.69549e-10 1.33723e-05 3.803e-09 3.52191e-08
2948 2 0.002 -7.03746e-05 -0.119953 -0.00102311 -2.15477e-09 7.15852e-10 -1.36592e-09 1.24437e-05 2.74369e-09 3.58107e-08
2790 2 0.002 -0.00698513 -0.115926 -0.000713381 -1.53512e-09 2.29338e-09 -3.72563e-10 1.30543e-05 3.29028e-09 3.84335e-08
2631 2 0.002 -0.0139005 -0.115914 -0.000316442 -2.97763e-10 2.59321e-09 2.44944e-09 1.18636e-05 2.14479e-09 3.0971e-08
2711 2 0.002 -0.0104331 -0.113922 -0.000209222 -6.46519e-10 3.06735e-09 5.08634e-10 5.93334e-06 2.06448e-09 3.64318e-08
2870 2 0.002 -0.00350442 -0.113968 -0.000218659 -1.19753e-09 2.73616e-10 3.68687e-09 1.0805e-05 1.67597e-09 2.10177e-08
2949 2 0.002 -4.42538e-05 -0.115987 -0.000332598 -1.71722e-09 -2.81001e-10 1.28491e-09 5.49744e-06 1.22035e-09 2.55692e-08
3107 2 0.002 0.00688944 -0.120004 -0.000381623 -1.50197e-09 -2.65822e-10 2.04487e-09 7.99702e-06 2.05031e-09 1.57591e-08
3266 2 0.002 0.0138601 -0.120023 -0.000246477 -2.19403e-10 1.01221e-09 1.49603e-09 5.9648e-06 4.41607e-09 6.85685e-09
3186 2 0.002 0.010366 -0.122 -0.000518341 -6.52765e-10 9.90811e-10 6.08429e-10 5.92652e-06 3.37784e-09 7.39016e-09
3027 2 0.002 0.00339953 -0.121966 -0.000940499 -1.99456e-09 4.13823e-10 1.20895e-09 4.78703e-06 2.41193e-09 2.03456e-08
3106 2 0.002 0.00687586 -0.123978 -0.000871367 -9.72915e-10 1.12145e-09 -1.45004e-09 3.4744e-06 2.96824e-09 9.59916e-09
3265 2 0.002 0.0138437 -0.123995 -0.000724703 2.58839e-10 2.23643e-09 2.14253e-10 4.92932e-06 3.70704e-09 5.1872e-09
3028 2 0.002 0.00341848 -0.118001 -0.000341977 -1.651e-09 -1.51812e-10 -8.98364e-10 5.08583e-06 1.34533e-09 2.7072e-08
3583 2 0.002 0.0277685 -0.115972 -0.00135025 -7.18133e-10 3.51306e-09 -1.68213e-09 2.75239e-06 2.41717e-09 3.37185e-08
3584 2 0.002 0.0277812 -0.11202 -0.000768125 -7.96862e-10 2.58014e-09 -1.87285e-10 3.48649e-06 1.83811e-09 3.20569e-08
3345 2 0.002 0.0173326 -0.122001 -0.000684751 4.90466e-10 2.59909e-09 1.38074e-09 1.74296e-06 3.2897e-09 6.71792e-09
3424 2 0.002 0.0208051 -0.123984 -0.00108741 1.03806e-09 3.88988e-09 7.95932e-10 2.89155e-06 2.78901e-09 8.41973e-09
3426 2 0.002 0.0208397 -0.116047 -0.000215376 -2.72252e-10 2.46526e-09 -8.51769e-10 2.65834e-06 2.21848e-09 2.35921e-08
3503 2 0.002 0.0242849 -0.12197 -0.00133935 6.84779e-10 4.11728e-09 3.50454e-10 3.73665e-06 3.00264e-09 1.41678e-08
3504 2 0.002 0.0242965 -0.11799 -0.00101214 7.55694e-10 2.97277e-09 4.60233e-09 2.10939e-06 2.15696e-09 2.23169e-08
3505 2 0.002 0.0243134 -0.114037 -0.000482299 -3.95967e-10 2.67405e-09 -2.63594e-10 3.04015e-06 1.15348e-09 3.04421e-08
3581 2 0.002 0.0277559 -0.123952 -0.00176946 1.04584e-09 4.44311e-09 1.94308e-09 9.29486e-06 3.77205e-09 1.99401e-08
3582 2 0.002 0.0277587 -0.119949 -0.00170873 -3.14799e-10 4.1921e-09 -3.75411e-09 5.11115e-06 3.77936e-09 2.49986e-08
3425 2 0.002 0.0208182 -0.12 -0.000774082 3.47193e-10 3.26397e-09 1.34311e-10 2.14835e-06 2.5435e-09 1.22981e-08
3346 2 0.002 0.0173547 -0.118044 -0.000116397 -1.15594e-10 1.73537e-09 9.04657e-11 2.21764e-06 3.75052e-09 1.14669e-08
3660 2 0.002 0.0312276 -0.121925 -0.00225901 -7.82553e-11 3.5687e-09 -2.68179e-09 1.32722e-05 7.10273e-09 3.94253e-08
3661 2 0.002 0.0312266 -0.11792 -0.00218022 3.608e-10 3.00129e-09 4.15187e-09 1.45186e-05 8.98828e-09 4.41249e-08
3662 2 0.002 0.0312384 -0.113951 -0.00167865 -5.53232e-10 2.39057e-09 2.67139e-09 1.45295e-05 4.91057e-09 5.30411e-08
3663 2 0.002 0.0312465 -0.110005 -0.000909946 -1.3102e-09 2.18254e-09 -4.62267e-11 5.88646e-06 2.85306e-09 3.25552e-08
109 1 0.015 0.0403167 -0.117524 -0.00629203 2.8001e-08 -7.49025e-08 -1.75746e-08 -6.65484e-06 0 2.16223e-06
3818 2 0.002 0.0381572 -0.109938 -0.00162237 -1.99745e-09 -8.70206e-10 4.95426e-09 8.80493e-06 7.4619e-09 8.0351e-08
3894 2 0.002 0.0416524 -0.115814 -0.00357956 -1.68942e-09 1.11549e-10 -1.79928e-09 4.70783e-05 7.6403e-08 1.21766e-06
3895 2 0.002 0.0416237 -0.111878 -0.00232352 -2.67098e-09 -1.29148e-10 -7.08089e-10 1.14955e-05 3.35275e-08 1.30173e-07
3971 2 0.002 0.0450887 -0.113872 -0.00240444 -3.05301e-09 -9.4848e-10 1.1473e-09 1.08593e-05 2.72337e-08 1.09513e-07
3972 2 0.002 0.0450713 -0.109922 -0.00148829 -3.14627e-09 -3.74846e-10 -2.7115e-09 7.38596e-06 9.44564e-09 4.8977e-08
3740 2 0.002 0.0347026 -0.111935 -0.00181398 -1.36285e-09 1.31246e-09 2.03123e-09 8.57098e-06 7.64324e-09 6.47803e-08
3737 2 0.002 0.0346944 -0.123919 -0.00254167 6.32532e-12 2.56496e-09 -2.28473e-09 1.54635e-05 8.64087e-09 4.82703e-08
3739 2 0.002 0.0346946 -0.115887 -0.00266624 -7.41202e-10 2.10101e-09 1.53961e-09 2.24534e-05 3.40128e-08 1.10965e-07
3816 2 0.002 0.0381543 -0.117839 -0.00375523 -1.08437e-09 1.12715e-09 -9.06921e-10 4.66195e-05 7.72304e-08 1.18109e-06
3817 2 0.002 0.0381634 -0.113867 -0.00276734 -1.67163e-09 7.15137e-10 1.6412e-10 2.61426e-05 6.45533e-08 1.27667e-07
3969 2 0.002 0.0450818 -0.121906 -0.00260149 -7.24902e-10 1.90313e-10 1.23219e-09 1.89212e-05 1.49469e-08 7.31653e-08
3738 2 0.002 0.0346921 -0.119888 -0.0029085 3.76052e-10 2.7503e-09 4.00221e-09 2.12402e-05 2.82101e-08 9.713e-08
3815 2 0.002 0.0381616 -0.121893 -0.00312752 -2.46108e-10 1.71657e-09 8.16997e-10 2.32975e-05 5.06119e-08 1.04458e-07
3892 2 0.002 0.0416241 -0.123913 -0.00275017 -2.68257e-10 9.52458e-10 1.20728e-09 1.94936e-05 1.48257e-08 8.83764e-08
3893 2 0.002 0.0416498 -0.119881 -0.00350463 -9.19039e-10 4.00923e-10 7.62843e-10 3.3486e-05 6.39361e-08 3.3426e-07
3970 2 0.002 0.0450941 -0.117873 -0.00280136 -1.69579e-09 -2.82345e-10 2.26687e-10 2.28476e-05 5.03291e-08 8.7908e-08
4046 2 0.002 0.0485333 -0.115905 -0.00189627 -2.09942e-09 -6.74959e-10 -6.84259e-10 1.50913e-05 8.23722e-09 4.53514e-08
4196 2 0.002 0.055413 -0.119958 -0.000756889 -6.37892e-10 4.34052e-10 1.97142e-09 3.98023e-06 1.87022e-09 1.19263e-08
4045 2 0.002 0.0485259 -0.119913 -0.00202085 -1.24534e-09 -2.11222e-10 1.25019e-09 1.48342e-05 5.88287e-09 4.22708e-08
4047 2 0.002 0.0485294 -0.111925 -0.0013861 -3.69548e-09 -1.49249e-09 1.61936e-09 6.93481e-06 6.14293e-09 5.45166e-08
4044 2 0.002 0.0485163 -0.123932 -0.00181621 -5.96532e-11 1.02636e-10 3.44176e-11 6.50156e-06 3.76586e-09 3.81698e-08
4120 2 0.002 0.0519644 -0.121942 -0.00132909 -1.83047e-10 1.62648e-10 -3.48838e-10 5.28037e-06 2.43092e-09 2.36063e-08
4121 2 0.002 0.0519705 -0.117934 -0.00130657 -1.2258e-09 -2.45148e-10 -6.19964e-10 1.0822e-05 2.54424e-09 2.22964e-08
4122 2 0.002 0.0519745 -0.11394 -0.00100407 -2.2561e-09 -6.52919e-10 -1.93128e-09 5.44377e-06 2.77675e-09 3.2856e-08
4195 2 0.002 0.0554098 -0.123966 -0.00071081 4.67486e-10 7.62175e-10 6.92945e-11 8.06658e-06 1.29113e-09 1.63033e-08
4197 2 0.002 0.0554164 -0.115957 -0.000574844 -1.23911e-09 1.22895e-11 -1.46042e-09 4.02185e-06 1.99801e-09 1.48311e-08
4123 2 0.002 0.051975 -0.109971 -0.000450548 -3.24125e-09 -1.05522e-09 -2.50393e-09 2.60501e-06 2.40038e-09 4.30389e-08
4198 2 0.002 0.0554186 -0.111974 -0.000140347 -3.36225e-09 -1.29503e-09 3.84236e-09 2.90245e-06 1.72764e-09 2.96709e-08
4270 2 0.002 0.0588631 -0.12198 -0.000263689 5.93038e-10 1.26666e-09 -8.66218e-11 6.22921e-06 1.82319e-09 8.15636e-09
4271 2 0.002 0.058866 -0.117974 -0.000198486 -1.66479e-10 9.16324e-10 -5.55066e-10 2.9471e-06 2.50907e-09 6.00889e-09
4629 2 0.002 0.0762045 -0.115982 -9.07122e-06 2.41302e-09 2.23402e-09 -1.39024e-09 4.27938e-06 9.46913e-10 3.01596e-09
4766 2 0.002 0.0831489 -0.112007 -0.000666052 3.09511e-09 1.58717e-09 -3.95851e-09 2.93352e-06 1.08114e-08 2.5364e-08
4833 2 0.002 0.0866076 -0.110012 -0.000755707 3.73155e-09 1.095e-09 2.8938e-09 4.02989e-06 1.34193e-08 1.7119e-08
4832 2 0.002 0.0866426 -0.114051 -0.000988248 2.36419e-09 9.92923e-10 -6.97468e-12 8.09092e-06 2.48646e-08 4.15527e-07
66 1 0.015 0.088532 -0.116097 -0.00198747 -1.74672e-09 5.02328e-09 3.90189e-09 -2.527e-06 0 4.04185e-07
4699 2 0.002 0.0796742 -0.109984 -0.000280758 3.83931e-09 1.70917e-09 4.51793e-10 6.75808e-06 1.10858e-09 1.15742e-08
4963 2 0.002 0.0935247 -0.109995 -0.00022663 2.37708e-09 3.46893e-10 -2.44464e-09 4.32112e-06 2.65117e-09 3.2693e-09
4897 2 0.002 0.0900873 -0.11602 -0.000498482 1.98252e-09 -4.65106e-10 -8.83591e-09 2.23831e-06 2.27047e-08 2.21264e-08
4765 2 0.002 0.0831456 -0.116003 -0.000551511 2.30338e-09 1.44718e-09 6.93557e-10 2.87146e-06 1.31597e-08 7.40296e-09
4764 2 0.002 0.0831381 -0.119997 -0.00020833 1.12455e-09 6.92965e-10 -1.7512e-09 2.7501e-06 2.96216e-09 1.21523e-09
4698 2 0.002 0.0796737 -0.113987 -0.00031856 3.11373e-09 1.95707e-09 1.22611e-09 5.4927e-06 3.07177e-09 6.05846e-09
4898 2 0.002 0.090078 -0.112012 -0.000552068 1.62772e-09 4.94737e-10 5.7373e-09 5.98686e-06 1.86155e-08 6.30709e-09
4831 2 0.002 0.0866109 -0.118014 -0.000406992 1.26659e-09 1.17432e-09 4.17035e-09 2.63168e-06 1.84767e-08 1.78084e-09
4697 2 0.002 0.0796717 -0.117989 -0.000205727 2.05506e-09 1.61297e-09 -1.07502e-10 3.91183e-06 1.78079e-09 2.73584e-09
4696 2 0.002 0.0796696 -0.121994 -5.72642e-05 1.02299e-09 9.65952e-10 1.12219e-09 2.76299e-06 5.73074e-10 1.17238e-09
878 2 0.002 -0.096944 -0.0959755 -0.00106191 -8.82593e-10 -1.14351e-09 -3.40893e-09 1.02325e-05 2.04475e-09 1.93864e-08
754 2 0.002 -0.103886 -0.0959884 -0.000286958 -6.67067e-10 -6.75543e-10 -1.53365e-09 6.62917e-06 1.30786e-09 8.74438e-09
753 2 0.002 -0.103895 -0.0999955 -0.000223343 -5.73148e-10 -3.8227e-10 -2.47343e-09 6.35559e-06 2.32847e-09 1.08803e-08
814 2 0.002 -0.100433 -0.10199 -0.000437439 -4.94758e-10 -3.5635e-10 1.33072e-09 4.1337e-06 2.93328e-09 2.13247e-08
816 2 0.002 -0.100408 -0.0939778 -0.000591838 -1.70959e-10 -1.24729e-09 2.59834e-09 4.25989e-06 1.32231e-09 1.32289e-08
876 2 0.002 -0.0969677 -0.103985 -0.000662298 -1.24336e-09 -5.93187e-10 -9.04992e-10 4.05427e-06 1.74397e-09 1.66576e-08
877 2 0.002 -0.0969561 -0.0999829 -0.000945425 -1.14078e-09 -8.30502e-10 -1.77344e-09 9.62058e-06 1.92223e-09 2.2065e-08
813 2 0.002 -0.100444 -0.105989 -0.000217444 -6.08608e-10 -2.84626e-10 -4.73087e-10 0.00674023 2.61477e-09 1.06403e-08
875 2 0.002 -0.096982 -0.107989 -0.000319857 -8.65376e-10 -2.39053e-10 5.75108e-10 7.05474e-06 3.0123e-09 1.27067e-08
815 2 0.002 -0.100418 -0.0979842 -0.000608168 -3.20774e-10 -6.9534e-10 2.38001e-09 4.01333e-06 1.37789e-09 1.38329e-08
694 2 0.002 -0.107363 -0.098 -7.05993e-05 -2.99099e-10 -2.73089e-10 1.39631e-09 1.84008e-06 1.18363e-09 4.44868e-09
18 1 0.015 -0.0863845 -0.0954461 -0.00482264 -4.59352e-08 -4.8159e-08 -1.12317e-08 -6.0103e-06 0 1.35828e-06
1072 2 0.002 -0.0865383 -0.0939852 -0.00288473 1.6705e-10 -1.60222e-09 -1.99243e-09 4.2009e-05 7.34744e-08 1.08166e-06
1206 2 0.002 -0.0796223 -0.0939943 -0.00140837 -1.30004e-09 -1.16974e-09 6.4982e-09 1.81927e-05 1.57491e-08 6.70785e-08
942 2 0.002 -0.0934742 -0.093969 -0.00155927 5.04937e-10 -1.54013e-09 1.72712e-09 1.36356e-05 6.87931e-09 3.24571e-08
1069 2 0.002 -0.0865724 -0.105996 -0.000933736 -2.8687e-09 -7.64316e-10 1.10403e-09 9.78331e-06 4.00776e-09 2.28407e-08
1204 2 0.002 -0.0796497 -0.101994 -0.000809463 -3.37095e-09 -6.60807e-10 1.0328e-09 6.68311e-06 4.08476e-09 3.90947e-08
940 2 0.002 -0.0934933 -0.101986 -0.00119657 -1.45095e-09 -7.68485e-10 9.74038e-10 1.03605e-05 3.0478e-09 2.38405e-08
1004 2 0.002 -0.0900309 -0.103993 -0.00122349 -2.17491e-09 -8.33233e-10 9.73773e-10 1.02874e-05 4.27989e-09 2.11002e-08
1136 2 0.002 -0.0831025 -0.104001 -0.00102898 -3.20254e-09 -9.10412e-10 6.06044e-12 6.09404e-06 5.05615e-09 3.33912e-08
1205 2 0.002 -0.0796295 -0.0979944 -0.00128007 -1.47078e-09 -1.17636e-09 -1.58834e-09 1.79898e-05 1.02332e-08 7.78443e-08
1137 2 0.002 -0.0830754 -0.100005 -0.00171145 -2.42215e-09 -9.59014e-10 5.56929e-10 1.81117e-05 2.84495e-08 6.17345e-08
1138 2 0.002 -0.0830529 -0.096001 -0.00233898 -1.02411e-09 -1.1302e-09 2.75881e-10 3.18498e-05 5.04744e-08 4.22629e-07
941 2 0.002 -0.0934827 -0.0979802 -0.00151587 -5.57371e-10 -1.03432e-09 1.7624e-09 1.26653e-05 5.36962e-09 3.13588e-08
1005 2 0.002 -0.0900184 -0.0999957 -0.00180389 -1.40527e-09 -1.0585e-09 1.35402e-09 1.46163e-05 1.59119e-08 3.89194e-08
1006 2 0.002 -0.0900146 -0.0959816 -0.00217903 -1.03537e-10 -1.40999e-09 9.93132e-10 1.87404e-05 4.74618e-08 5.88734e-08
1070 2 0.002 -0.0865508 -0.102003 -0.00163254 -2.39137e-09 -1.26887e-09 -5.11344e-10 1.4661e-05 1.14724e-08 4.54875e-08
1071 2 0.002 -0.0865387 -0.0980157 -0.00247092 -1.36047e-09 -1.65893e-09 -1.45132e-09 2.61751e-05 4.93211e-08 2.38594e-07
939 2 0.002 -0.0935077 -0.105987 -0.000759837 -1.77085e-09 -7.56011e-10 -1.18849e-09 2.69194e-06 1.71635e-09 1.57289e-08
1003 2 0.002 -0.0900478 -0.107988 -0.000660414 -2.13193e-09 -6.94749e-10 2.27981e-10 2.40286e-06 2.60193e-09 1.15605e-08
1135 2 0.002 -0.0831311 -0.108004 -0.000406351 -3.3999e-09 -5.05206e-10 1.34988e-09 2.28934e-06 2.10187e-09 2.58986e-08
1203 2 0.002 -0.0796764 -0.105997 -0.00028233 -3.16833e-09 -1.14287e-09 -4.16455e-09 5.05845e-06 1.96613e-09 2.33127e-08
1274 2 0.002 -0.0762022 -0.0959914 -0.000537482 -5.72892e-10 -1.10951e-09 -1.1678e-09 1.36701e-05 3.37011e-09 3.94232e-08
1273 2 0.002 -0.0762175 -0.0999872 -0.000288464 -1.48555e-09 -1.30202e-09 -5.44498e-09 6.55801e-06 2.24851e-09 4.3473e-08
3585 2 0.002 0.0277891 -0.108072 -8.97536e-05 -4.45277e-10 1.15564e-09 3.22098e-09 4.10468e-06 2.41299e-09 1.59869e-08
3664 2 0.002 0.0312527 -0.106068 -2.40335e-05 -1.38743e-09 1.88447e-09 -1.93846e-09 3.04899e-06 2.4706e-09 2.22073e-08
3896 2 0.002 0.0416027 -0.107961 -0.00113482 -2.96169e-09 -1.23149e-09 2.69513e-09 1.48854e-05 5.08012e-09 6.64158e-08
3741 2 0.002 0.0347044 -0.108006 -0.000798891 -1.68367e-09 8.88184e-10 1.57939e-09 4.32322e-06 2.29489e-09 4.74293e-08
3819 2 0.002 0.0381478 -0.106023 -0.000460465 -2.50362e-09 1.12457e-09 -2.82644e-09 3.25264e-06 2.18332e-09 6.33383e-08
3973 2 0.002 0.0450496 -0.105993 -0.000493573 -3.46355e-09 -1.23651e-09 4.65982e-11 5.19348e-06 3.72374e-09 2.60906e-08
4048 2 0.002 0.04852 -0.107972 -0.000630408 -3.55128e-09 -1.05806e-09 -2.49038e-09 2.61781e-06 3.63195e-09 3.07026e-08
4634 2 0.002 0.0761897 -0.0959505 -0.000185035 1.40827e-09 -2.53201e-09 4.55325e-09 3.08214e-06 1.07443e-09 2.3098e-08
4702 2 0.002 0.0796514 -0.0979434 -0.000436558 3.55493e-09 -1.68694e-09 4.09001e-09 7.69175e-06 1.8424e-09 1.16733e-08
4769 2 0.002 0.0831182 -0.099948 -0.000588247 5.11932e-09 -6.61645e-10 8.96725e-10 6.49487e-06 2.34634e-09 7.28725e-09
4836 2 0.002 0.0865865 -0.0979392 -0.000757252 5.70256e-09 -7.30727e-10 -1.3789e-09 6.63388e-06 2.14841e-09 7.65017e-09
4902 2 0.002 0.0900572 -0.0959334 -0.000714635 6.05034e-09 -5.14541e-10 -3.03414e-09 6.90229e-06 1.44596e-09 7.86245e-09
4770 2 0.002 0.0831153 -0.0959304 -0.00084213 3.74782e-09 -2.44693e-09 -4.6263e-09 8.18438e-06 3.42792e-09 1.33058e-08
4837 2 0.002 0.0865888 -0.0939217 -0.0010212 4.28934e-09 -1.69354e-09 2.17576e-09 8.52802e-06 3.77628e-09 1.20308e-08
4703 2 0.002 0.079647 -0.0939359 -0.000795373 9.01608e-10 -4.33313e-09 -8.25239e-09 4.92033e-06 3.09663e-09 2.3781e-08
4768 2 0.002 0.0831236 -0.103968 -0.000500308 5.05467e-09 5.14306e-10 -3.23803e-09 5.98692e-06 2.05291e-09 6.22498e-09