ITEM: TIMESTEP
350000
ITEM: NUMBER OF ATOMS
5843
ITEM: BOX BOUNDS ff ff ff
-2.5000000000000000e-01 2.5000000000000000e-01
-2.5000000000000000e-01 2.5000000000000000e-01
-1.0000000000000001e-01 1.0000000000000001e-01
ITEM: ATOMS id type radius x y z fx fy fz v_pressure c_bendingE c_stretchingE
98 1 0.015 -0.0134901 -0.149042 -0.00140557 9.64645e-09 -3.81307e-09 -1.28684e-09 -6.24966e-06 0 3.42969e-06
2624 2 0.002 -0.0138853 -0.144055 -0.000358044 7.91612e-11 -8.11004e-11 -4.69654e-11 7.13269e-06 3.22345e-08 2.06927e-06
2703 2 0.002 -0.0104416 -0.146058 -0.00049843 5.74818e-11 -4.47789e-11 1.09204e-10 5.53569e-06 4.06024e-08 1.44115e-06
2783 2 0.002 -0.00698212 -0.143995 -1.42617e-05 -1.82004e-11 -1.10314e-10 6.78749e-10 5.16044e-06 1.62586e-08 2.60394e-08
3655 2 0.002 0.0311726 -0.141979 -6.1303e-05 -8.37252e-11 6.8322e-11 9.0156e-11 5.28477e-06 1.54671e-09 5.95284e-09
3498 2 0.002 0.0242397 -0.14197 -7.29677e-05 -8.01893e-11 4.89156e-11 2.44695e-10 6.18644e-06 4.96714e-10 8.63337e-09
3576 2 0.002 0.0277082 -0.143981 -4.86199e-05 -4.02977e-11 4.48541e-11 3.16593e-11 2.51382e-06 4.34402e-10 5.19494e-09
3419 2 0.002 0.0207788 -0.143979 1.08521e-05 -3.96941e-11 -4.5349e-12 -8.94402e-10 5.7069e-06 4.26463e-10 6.44544e-09
1477 2 0.002 -0.0658403 -0.130026 -0.000480755 1.36871e-11 1.66469e-10 1.25341e-09 7.85305e-07 1.12496e-08 4.06797e-08
1478 2 0.002 -0.0658497 -0.126045 -0.000692604 -3.12815e-11 8.22392e-11 3.79529e-10 3.95501e-06 6.82574e-09 3.80727e-07
1406 2 0.002 -0.069297 -0.128016 -0.000358664 -1.3085e-10 -8.36147e-13 -8.90611e-10 1.2096e-07 7.90197e-09 1.11643e-08
56 1 0.015 -0.0677759 -0.129685 -0.00108316 -2.17782e-10 2.16842e-09 4.48935e-10 -2.767e-06 0 4.10192e-07
1336 2 0.002 -0.0727451 -0.125997 -0.000124188 -2.90286e-11 1.49786e-13 4.00512e-10 1.68554e-06 1.74194e-09 4.9906e-10
1849 2 0.002 -0.0484702 -0.127982 -0.000551325 -8.32258e-11 2.06618e-10 -4.70235e-10 2.18973e-06 7.64989e-10 3.29744e-09
1774 2 0.002 -0.0519335 -0.125983 -0.000766238 -8.86436e-11 3.02084e-10 2.17151e-10 2.37358e-06 7.0575e-10 4.06911e-09
1848 2 0.002 -0.0484855 -0.131984 -0.000245616 -9.10572e-11 1.87732e-10 1.04235e-10 3.21991e-06 7.24677e-10 2.03496e-09
1550 2 0.002 -0.0623624 -0.12801 -0.000621261 -1.6959e-11 7.10596e-11 -8.84911e-10 4.33543e-06 5.14461e-09 4.5506e-09
1624 2 0.002 -0.058884 -0.125994 -0.000709735 -4.75975e-11 2.20501e-10 7.08107e-10 4.68747e-06 1.67205e-09 4.72217e-09
1623 2 0.002 -0.0588865 -0.129994 -0.000474351 -3.35788e-11 1.55652e-10 3.20983e-10 3.69006e-06 7.88763e-10 2.54869e-09
1622 2 0.002 -0.0588878 -0.133993 -0.000178486 -8.41677e-12 8.66027e-11 3.35885e-10 3.00596e-06 1.04024e-09 1.76829e-09
1772 2 0.002 -0.0519553 -0.133989 -0.000192124 -5.98105e-11 1.32767e-10 2.14433e-10 1.55769e-06 5.99997e-10 2.29001e-09
1697 2 0.002 -0.0554182 -0.131988 -0.000335482 -4.44167e-11 1.20289e-10 -3.89719e-10 1.67012e-06 3.21203e-10 2.08496e-09
1698 2 0.002 -0.0554117 -0.127987 -0.00061766 -6.40828e-11 2.10182e-10 -2.00686e-10 4.17114e-06 4.53037e-10 3.26454e-09
1773 2 0.002 -0.0519456 -0.129984 -0.000462077 -8.10788e-11 2.27555e-10 1.9528e-10 1.9128e-06 2.70591e-10 2.74075e-09
1549 2 0.002 -0.0623573 -0.132001 -0.000291941 -1.15284e-11 2.5815e-11 -4.76699e-10 3.11264e-06 4.10179e-09 1.78084e-09
1696 2 0.002 -0.0554229 -0.135992 -9.74752e-05 -1.06344e-11 5.72346e-11 -5.02904e-11 1.29933e-06 6.17371e-10 1.33598e-09
1847 2 0.002 -0.0484959 -0.135992 -4.30228e-05 -6.32853e-11 9.29913e-11 -2.8909e-10 2.27246e-06 6.91588e-10 1.23423e-09
1925 2 0.002 -0.0449945 -0.125983 -0.000589371 -9.62758e-11 2.14803e-10 6.14147e-11 2.69215e-06 1.72111e-09 5.12172e-09
2001 2 0.002 -0.0415463 -0.127986 -0.000131133 -4.31002e-11 9.37501e-11 -1.17261e-10 2.52569e-06 1.48201e-09 4.78289e-09
1924 2 0.002 -0.0450144 -0.129984 -0.000230983 -1.02001e-10 1.97561e-10 2.49187e-10 3.99808e-06 1.03006e-09 2.98588e-09
1923 2 0.002 -0.0450314 -0.13399 2.6669e-05 -7.30012e-11 1.23338e-10 -2.03222e-10 2.63705e-06 1.59095e-09 1.81616e-09
3502 2 0.002 0.0242105 -0.125881 -0.00105686 -1.80215e-10 2.45776e-10 6.06108e-10 1.17704e-05 5.15743e-09 2.19246e-08
3344 2 0.002 0.0172902 -0.12588 -0.000183454 -3.184e-10 -9.7184e-11 -3.28308e-10 9.92806e-06 1.80381e-09 1.71236e-08
3422 2 0.002 0.0207591 -0.131906 -0.00033145 -3.4618e-10 1.4667e-12 -5.1749e-10 4.01096e-06 8.12684e-10 1.04055e-08
3423 2 0.002 0.020753 -0.127885 -0.000540104 -2.7299e-10 5.6263e-11 1.64978e-10 9.62779e-06 1.72251e-09 1.45687e-08
3501 2 0.002 0.0242214 -0.1299 -0.000693277 -3.0599e-10 1.64379e-10 -1.79483e-11 9.14445e-06 1.67867e-09 1.43362e-08
3579 2 0.002 0.0276952 -0.13192 -0.000628327 -3.18841e-10 2.12386e-10 -2.77945e-10 4.32763e-06 1.80902e-09 1.58236e-08
3580 2 0.002 0.0276842 -0.127903 -0.00104796 -2.73113e-10 3.10062e-10 1.43688e-10 1.08914e-05 3.80992e-09 2.47335e-08
3499 2 0.002 0.0242337 -0.137945 -0.000203388 -2.02475e-10 7.86673e-11 -2.15758e-11 6.69226e-06 5.15619e-10 8.63021e-09
3578 2 0.002 0.0277003 -0.135939 -0.000332721 -2.62663e-10 1.80858e-10 1.96853e-10 7.01194e-06 9.43031e-10 9.57598e-09
3421 2 0.002 0.0207651 -0.135929 -0.000155408 -2.33718e-10 1.33741e-11 1.9374e-10 7.01325e-06 4.70956e-10 8.70167e-09
3500 2 0.002 0.0242288 -0.133921 -0.000406107 -2.89736e-10 1.35683e-10 1.26786e-10 3.79098e-06 9.13328e-10 1.04639e-08
3656 2 0.002 0.0311711 -0.137958 -0.000149073 -2.19173e-10 1.48973e-10 1.12866e-10 6.30389e-06 1.64827e-09 7.69515e-09
3657 2 0.002 0.0311704 -0.133943 -0.000389326 -3.05777e-10 2.25811e-10 -2.04294e-10 2.81005e-06 1.47324e-09 1.87926e-08
3658 2 0.002 0.0311595 -0.129928 -0.000782084 -3.30682e-10 3.67874e-10 3.79204e-10 3.29842e-06 1.87285e-09 2.64428e-08
3577 2 0.002 0.0277036 -0.13996 -0.000152032 -1.46237e-10 9.25993e-11 -3.03063e-10 2.97052e-06 6.44e-10 6.93546e-09
3659 2 0.002 0.0311483 -0.125914 -0.00129025 -2.34164e-10 3.81484e-10 -8.85962e-11 6.14409e-06 5.01087e-09 3.54486e-08
3343 2 0.002 0.0172917 -0.129897 -0.000109353 -2.92674e-10 -8.7854e-11 1.75099e-11 8.38083e-06 9.49106e-10 1.09313e-08
3342 2 0.002 0.0172969 -0.133918 -6.07509e-06 -1.99619e-10 -6.55521e-11 1.23073e-09 7.36119e-06 4.95692e-10 8.61671e-09
3420 2 0.002 0.02077 -0.139955 -3.66287e-05 -1.41532e-10 -1.69831e-12 2.0274e-10 6.5234e-06 3.55239e-10 7.76023e-09
3736 2 0.002 0.0346175 -0.12794 -0.00082296 -3.09034e-10 3.98784e-10 2.24697e-10 3.5448e-06 1.10027e-09 3.41185e-08
3814 2 0.002 0.0380728 -0.125949 -0.000752785 -2.31675e-10 3.59917e-10 4.90575e-11 3.34881e-06 1.72977e-09 2.78612e-08
3968 2 0.002 0.0450075 -0.125975 -0.000371284 -2.18641e-10 1.2139e-10 1.74696e-10 0.00747305 1.72638e-09 9.3954e-09
3735 2 0.002 0.0346305 -0.131956 -0.000364447 -3.11339e-10 2.30904e-10 -4.67607e-10 2.44501e-06 1.43459e-09 3.29789e-08
3891 2 0.002 0.0415372 -0.127977 -0.00033847 -2.97967e-10 2.04744e-10 -1.16174e-10 3.10922e-06 1.71159e-09 2.34679e-08
3813 2 0.002 0.0380813 -0.12997 -0.000331511 -3.50582e-10 2.86911e-10 8.51161e-11 2.57062e-06 1.26903e-09 3.58679e-08
3967 2 0.002 0.0450057 -0.129992 -0.000101894 -3.28075e-10 5.2406e-11 -3.77355e-10 8.10359e-06 1.71405e-09 1.16894e-08
4341 2 0.002 0.0624146 -0.132057 -0.000782105 4.66618e-11 3.14819e-10 1.66256e-09 3.03638e-06 5.90694e-08 2.73632e-08
4342 2 0.002 0.0624464 -0.128087 -0.00119201 -4.84958e-11 -7.29294e-11 -4.33913e-10 6.00363e-06 5.28492e-08 1.14795e-07
4268 2 0.002 0.0589344 -0.130029 -0.000795183 -1.50668e-10 -1.34503e-10 -4.4028e-10 2.72649e-06 1.30884e-08 1.60711e-08
4194 2 0.002 0.055452 -0.128007 -0.000619654 -1.63667e-10 -1.61582e-10 1.51809e-11 3.68848e-06 2.24163e-09 1.21365e-08
4267 2 0.002 0.0589114 -0.134002 -0.000347604 -5.33234e-11 -9.96444e-11 -6.67558e-10 1.45823e-06 7.76132e-09 6.38123e-09
4269 2 0.002 0.0589483 -0.126032 -0.000846221 -9.96989e-12 -2.41977e-10 7.1377e-10 3.6154e-06 4.86717e-09 3.56824e-08
4192 2 0.002 0.0554299 -0.135992 -0.000129071 -6.17788e-11 -7.21882e-12 2.05522e-10 1.71645e-06 1.9265e-09 2.30585e-09
4119 2 0.002 0.05197 -0.125992 -0.000458537 -1.53908e-10 -1.34889e-10 1.12413e-10 6.88832e-06 1.38765e-09 8.65347e-09
4193 2 0.002 0.0554387 -0.132 -0.000425655 -1.40411e-10 -6.83661e-11 4.02175e-10 2.80565e-06 2.38854e-09 7.95951e-09
4043 2 0.002 0.0484837 -0.127987 -0.000292852 -2.51695e-10 -4.16479e-12 3.33291e-10 0.00681021 1.17649e-09 7.1407e-09
4118 2 0.002 0.0519611 -0.129995 -0.000350928 -2.43842e-10 -9.43928e-11 -4.61619e-12 6.43332e-06 1.06111e-09 8.07364e-09
4117 2 0.002 0.0519546 -0.133995 -0.000145574 -2.10112e-10 -5.95734e-11 -2.70934e-10 2.76911e-06 1.03541e-09 6.00148e-09
4042 2 0.002 0.0484787 -0.131995 -7.13875e-05 -2.99738e-10 -2.93207e-11 -1.60661e-10 6.84364e-06 1.84587e-09 8.32958e-09
76 1 0.015 0.066733 -0.131648 -0.00306019 3.48489e-08 2.22176e-08 5.01636e-09 -7.578e-06 0 1.87339e-06
4414 2 0.002 0.0659655 -0.130225 -0.00152513 1.00546e-10 3.59898e-11 1.38522e-10 4.70467e-05 1.67597e-07 2.04878e-06
4415 2 0.002 0.0658894 -0.126097 -0.00112915 5.84673e-11 -1.34428e-10 1.14598e-11 6.17525e-06 5.35733e-08 1.42165e-07
4486 2 0.002 0.0693191 -0.128065 -0.000729054 2.1214e-10 -9.40508e-11 -7.21166e-10 4.12566e-06 5.76145e-08 3.36482e-08
4557 2 0.002 0.0727557 -0.12601 -0.00022758 6.33204e-11 -5.58134e-11 1.17948e-11 6.74081e-07 6.53504e-09 9.68713e-09
1479 2 0.002 -0.0658112 -0.122009 -0.000461103 -7.18534e-11 5.40275e-11 1.44837e-10 3.32267e-06 3.55126e-09 1.30481e-08
1407 2 0.002 -0.069281 -0.124002 -0.00034423 -6.6221e-11 3.88444e-12 1.66603e-10 3.58508e-06 4.97023e-09 2.48613e-09
1408 2 0.002 -0.0692599 -0.119995 -9.88956e-05 -1.27045e-10 8.01901e-12 -3.30462e-10 4.55272e-06 1.26383e-09 3.31545e-09
1480 2 0.002 -0.0657848 -0.117997 -0.000128186 -9.46447e-11 7.67756e-12 1.25068e-10 5.8829e-06 8.84193e-10 6.31914e-09
1337 2 0.002 -0.0727338 -0.121991 -3.71036e-05 -9.64632e-11 -1.65211e-11 -8.72603e-11 3.05299e-06 1.30017e-09 1.40743e-09
1267 2 0.002 -0.0762058 -0.123993 1.8234e-05 -5.9808e-11 -8.52826e-12 -2.37902e-10 2.34878e-06 6.36313e-10 1.01402e-09
1626 2 0.002 -0.0588531 -0.11798 -0.000647876 -8.95836e-11 2.15467e-10 -4.63495e-11 3.03365e-06 2.31434e-09 6.68252e-09
1851 2 0.002 -0.0484386 -0.119986 -0.00134886 -1.01606e-10 3.17275e-10 -2.62029e-10 7.71768e-06 5.10317e-09 9.42901e-09
1552 2 0.002 -0.062334 -0.119992 -0.000518965 -8.68548e-11 1.21e-10 -5.0522e-11 5.7852e-06 2.094e-09 6.52729e-09
1776 2 0.002 -0.0519092 -0.117975 -0.00127281 -9.88291e-11 3.53985e-10 -1.47939e-10 7.73913e-06 5.32758e-09 1.19739e-08
1778 2 0.002 -0.0518863 -0.109982 -0.00106127 -9.33663e-11 3.66141e-10 -9.83818e-11 6.51195e-06 4.85775e-09 4.76399e-08
1777 2 0.002 -0.0518998 -0.113972 -0.00131445 -1.10324e-10 3.70864e-10 -1.51886e-10 5.20006e-06 6.85909e-09 2.37674e-08
1852 2 0.002 -0.0484313 -0.115987 -0.00176408 -7.45683e-11 4.01298e-10 2.31723e-10 1.20162e-05 1.82836e-08 2.72401e-08
1853 2 0.002 -0.048432 -0.111984 -0.00187659 -1.24998e-10 4.14186e-10 -5.91123e-11 1.67404e-05 4.02931e-08 6.21468e-08
1700 2 0.002 -0.0553902 -0.119978 -0.000954524 -5.40634e-11 3.01537e-10 4.3065e-10 3.00062e-06 2.98415e-09 7.56206e-09
1775 2 0.002 -0.051921 -0.121981 -0.00105646 -8.28252e-11 3.40226e-10 9.0177e-11 5.85442e-06 2.16127e-09 6.34047e-09
1850 2 0.002 -0.0484534 -0.123983 -0.000924319 -9.9375e-11 3.21283e-10 2.09116e-10 5.6976e-06 1.56703e-09 5.38502e-09
1701 2 0.002 -0.0553739 -0.115972 -0.000903538 -9.3001e-11 2.9744e-10 -1.30331e-10 7.38879e-06 3.40434e-09 1.09005e-08
1702 2 0.002 -0.0553547 -0.111978 -0.000651405 2.09661e-11 2.24743e-10 5.49603e-10 9.42505e-06 2.17411e-09 2.12065e-08
1627 2 0.002 -0.0588291 -0.113982 -0.000357875 -6.07427e-11 1.73675e-10 4.92764e-11 7.30076e-06 1.76163e-09 9.61855e-09
1551 2 0.002 -0.0623606 -0.124006 -0.000698134 -6.21697e-11 1.3295e-10 -2.57065e-10 3.22865e-06 4.11904e-09 1.28456e-08
1625 2 0.002 -0.0588739 -0.121988 -0.000770075 -6.54256e-11 2.22773e-10 5.98064e-11 5.54794e-06 2.32932e-09 7.41488e-09
1699 2 0.002 -0.0554028 -0.123985 -0.000845193 -9.25255e-11 2.46035e-10 -6.26286e-10 2.49609e-06 1.50775e-09 5.1628e-09
1553 2 0.002 -0.0623072 -0.11599 -0.000194767 -7.57385e-11 6.892e-11 1.35889e-10 6.24631e-06 1.35225e-09 5.98747e-09
24 1 0.015 -0.0439578 -0.112546 -0.00457316 -3.69053e-09 1.43062e-08 3.03675e-09 -5.23377e-06 0 1.22386e-06
1929 2 0.002 -0.0449602 -0.110007 -0.00243171 -1.15261e-10 3.86709e-10 2.00769e-10 3.31503e-05 5.45839e-08 6.91873e-07
1926 2 0.002 -0.0449727 -0.121988 -0.00105611 -8.76046e-11 2.09535e-10 -3.28726e-10 7.4983e-06 4.07895e-09 1.02617e-08
2160 2 0.002 -0.0345619 -0.112076 -0.000676848 -1.21847e-10 -1.91514e-10 -1.73181e-10 3.58093e-06 6.72194e-09 4.92807e-08
2083 2 0.002 -0.0380018 -0.110079 -0.00151773 -5.25766e-11 2.09458e-11 -5.30459e-10 6.88529e-06 2.16978e-08 5.35346e-08
2081 2 0.002 -0.0380344 -0.118017 -0.00079412 -6.98925e-11 -5.05508e-11 -1.27401e-10 5.79388e-06 4.41988e-09 4.87834e-08
1927 2 0.002 -0.0449534 -0.118004 -0.00167061 -9.88995e-11 3.00078e-10 2.70872e-11 1.18821e-05 1.78691e-08 2.62811e-08
1928 2 0.002 -0.0449508 -0.114029 -0.00245205 -1.15787e-10 3.73543e-10 1.61816e-10 2.48522e-05 5.12963e-08 2.97825e-07
2003 2 0.002 -0.0414958 -0.120001 -0.00105938 -9.32057e-11 1.24487e-10 -2.40814e-11 4.83964e-06 5.7874e-09 2.14119e-08
2004 2 0.002 -0.0414686 -0.116031 -0.00174158 -9.4784e-11 1.44344e-10 -1.36032e-10 1.58143e-05 4.016e-08 6.07963e-08
2005 2 0.002 -0.04145 -0.112055 -0.00239049 -1.42004e-10 2.14827e-10 1.30697e-11 3.03098e-05 5.36442e-08 5.48866e-07
2082 2 0.002 -0.0380061 -0.114054 -0.00135025 -9.80479e-11 -2.26463e-11 -1.84973e-10 7.9374e-06 1.86105e-08 1.01223e-07
2159 2 0.002 -0.0345936 -0.116034 -0.000259433 -1.87519e-10 -1.56809e-10 3.60177e-10 4.02174e-06 1.98205e-09 7.0103e-08
2080 2 0.002 -0.0380623 -0.121992 -0.000274466 -6.62094e-11 -2.27616e-11 1.35561e-10 8.17051e-06 2.10494e-09 1.80742e-08
2002 2 0.002 -0.0415227 -0.123987 -0.000524389 -1.01998e-10 1.39913e-10 2.43617e-10 6.65277e-06 2.49998e-09 8.68747e-09
2238 2 0.002 -0.0311014 -0.110091 -0.000158109 -2.40139e-10 -2.64953e-10 3.43503e-10 4.15363e-06 4.67691e-09 2.08972e-08
3425 2 0.002 0.0207482 -0.119855 -0.000764257 -3.36335e-11 2.44151e-12 3.31071e-10 1.50205e-05 5.08189e-09 4.39957e-08
3426 2 0.002 0.0207557 -0.115858 -0.000525261 1.01718e-11 -3.2338e-11 -3.40233e-11 1.66823e-05 4.09038e-09 6.33702e-08
3503 2 0.002 0.0242027 -0.121861 -0.00142253 -1.24144e-10 1.70442e-10 -6.38334e-11 1.76618e-05 1.90342e-08 5.91894e-08
3504 2 0.002 0.0242009 -0.117849 -0.00145109 2.27232e-11 1.44064e-10 1.12259e-10 2.20414e-05 3.67183e-08 9.66209e-08
3505 2 0.002 0.0242088 -0.113849 -0.000995292 7.22383e-11 1.32578e-10 -2.73508e-10 1.06265e-05 1.4251e-08 1.11215e-07
3582 2 0.002 0.0276632 -0.119879 -0.0022915 -3.13803e-11 3.44737e-10 -4.08424e-11 3.22675e-05 5.17084e-08 6.11787e-07
3583 2 0.002 0.0276643 -0.115849 -0.00200381 1.34484e-10 2.86772e-10 1.99963e-10 3.85589e-05 4.59475e-08 8.92294e-07
3584 2 0.002 0.0276629 -0.11185 -0.0010298 2.20108e-10 2.6187e-10 -2.96065e-10 1.03457e-05 1.39836e-08 1.0897e-07
20 1 0.015 0.0298279 -0.119197 -0.00430364 -2.34797e-09 9.13745e-09 1.27429e-09 -5.51484e-06 0 1.56575e-06
3581 2 0.002 0.0276699 -0.123889 -0.00160313 -2.0437e-10 2.34289e-10 -6.87682e-10 1.53846e-05 2.08589e-08 4.41291e-08
3427 2 0.002 0.0207656 -0.11187 -4.29569e-05 3.39991e-11 -7.80757e-11 -3.32592e-10 7.82334e-06 2.77553e-09 5.74863e-08
3424 2 0.002 0.0207497 -0.123866 -0.000726289 -1.94991e-10 4.8572e-11 1.74226e-10 1.23758e-05 4.00104e-09 2.78028e-08
3345 2 0.002 0.0172924 -0.121869 -0.000164108 -1.80317e-10 -1.10007e-10 6.15447e-11 1.16182e-05 1.98021e-09 2.60661e-08
3506 2 0.002 0.0242178 -0.109858 -0.000254781 1.54402e-10 6.75014e-12 -2.2348e-10 7.93061e-06 4.5554e-09 5.61682e-08
3663 2 0.002 0.0311287 -0.109864 -0.000619972 3.55946e-10 2.92677e-10 -1.61714e-10 1.56254e-05 4.60174e-09 5.7316e-08
3662 2 0.002 0.0311283 -0.113854 -0.0014785 2.78944e-10 3.53275e-10 1.54467e-10 2.0519e-05 3.52369e-08 8.22812e-08
3660 2 0.002 0.031146 -0.121901 -0.00185279 -7.46737e-11 3.70156e-10 -2.75274e-10 1.63083e-05 4.00486e-08 4.87133e-08
3661 2 0.002 0.0311561 -0.117869 -0.00227181 9.6215e-11 4.06175e-10 3.46535e-10 2.9032e-05 5.02704e-08 4.18297e-07
3737 2 0.002 0.0346107 -0.123922 -0.00127835 -1.06612e-10 3.7476e-10 -4.48619e-10 6.08003e-06 4.66037e-09 3.51764e-08
3816 2 0.002 0.0380666 -0.117906 -0.00105025 2.51698e-10 4.05599e-10 -2.60328e-10 1.11843e-05 4.5587e-09 1.96103e-08
3739 2 0.002 0.0345975 -0.115877 -0.00141985 2.49694e-10 4.06833e-10 3.11605e-10 1.62502e-05 1.7222e-08 4.58242e-08
3738 2 0.002 0.0346101 -0.119897 -0.00158666 6.41304e-12 4.36277e-10 3.68072e-10 1.46051e-05 1.95473e-08 3.92853e-08
3740 2 0.002 0.0345917 -0.111877 -0.000820297 4.13317e-10 3.71118e-10 7.77651e-11 1.39136e-05 4.61641e-09 3.42076e-08
3818 2 0.002 0.038064 -0.109903 -0.000243386 4.74912e-10 3.25019e-10 1.84116e-10 1.07948e-05 1.57544e-09 1.90985e-08
3817 2 0.002 0.0380607 -0.1139 -0.000740337 4.26554e-10 3.98373e-10 -1.217e-10 1.17459e-05 3.29444e-09 2.30951e-08
3894 2 0.002 0.0415348 -0.115922 -0.000543524 3.02363e-10 2.81401e-10 4.05088e-10 9.39174e-06 1.52618e-09 1.38253e-08
3895 2 0.002 0.0415362 -0.111923 -0.000188201 4.84462e-10 3.12232e-10 -2.33974e-11 4.9206e-06 1.14507e-09 1.60689e-08
3892 2 0.002 0.0415353 -0.123954 -0.000621535 -1.42374e-10 2.76277e-10 2.92102e-10 4.32284e-06 2.2471e-09 1.56288e-08
3893 2 0.002 0.0415355 -0.119934 -0.000704162 9.72141e-11 2.91691e-10 1.43719e-10 8.76825e-06 2.06427e-09 1.28371e-08
3815 2 0.002 0.0380689 -0.121927 -0.00103123 2.573e-11 3.71134e-10 -4.60874e-10 1.05314e-05 3.67178e-09 2.31825e-08
3969 2 0.002 0.0450099 -0.121958 -0.00047677 1.33147e-12 1.4141e-10 -1.96221e-10 7.40056e-06 1.86085e-09 9.06536e-09
3970 2 0.002 0.0450108 -0.117945 -0.000376195 2.46339e-10 1.63983e-10 -1.9993e-10 3.9392e-06 1.35784e-09 9.7926e-09
3971 2 0.002 0.0450112 -0.113942 -8.63773e-05 3.88208e-10 1.43869e-10 3.48461e-10 4.30237e-06 8.0248e-10 1.16343e-08
4343 2 0.002 0.0624166 -0.124049 -0.000891057 2.72797e-11 -1.87066e-10 -4.46182e-10 4.02023e-06 1.27391e-08 3.49542e-08
4195 2 0.002 0.0554592 -0.124004 -0.000570134 -6.96435e-11 -2.10029e-10 -4.59741e-10 8.20022e-06 2.12027e-09 1.5804e-08
4270 2 0.002 0.0589365 -0.122018 -0.000577561 6.91395e-11 -3.35877e-10 5.33316e-10 4.60831e-06 2.20256e-09 1.89829e-08
4344 2 0.002 0.0624004 -0.120026 -0.000436925 1.19334e-10 -3.16957e-10 6.65891e-11 3.14832e-06 1.55445e-09 2.0737e-08
4271 2 0.002 0.058926 -0.118009 -0.000169801 1.76374e-10 -3.3407e-10 3.59321e-11 4.14518e-06 4.57369e-10 1.36994e-08
4196 2 0.002 0.0554543 -0.119997 -0.000311987 9.94897e-11 -2.17516e-10 -6.68863e-10 3.9271e-06 1.16131e-09 1.24138e-08
4044 2 0.002 0.0484889 -0.123977 -0.000396983 -1.04759e-10 -2.57531e-11 -4.46738e-10 0.0068156 1.60469e-09 7.5128e-09
4120 2 0.002 0.051974 -0.121984 -0.000385578 1.24566e-11 -1.72177e-10 3.13711e-10 7.19765e-06 1.56578e-09 9.85928e-09
4045 2 0.002 0.0484909 -0.119966 -0.000316998 1.08496e-10 -3.13815e-11 3.21611e-10 7.12232e-06 1.51998e-09 8.51422e-09
4046 2 0.002 0.0484896 -0.115961 -5.01534e-05 3.40716e-10 4.83865e-11 -5.25875e-10 7.68323e-06 1.0013e-09 9.21648e-09
4121 2 0.002 0.0519715 -0.117979 -0.000129065 2.04391e-10 -1.90204e-10 3.77006e-10 7.4153e-06 1.16814e-09 9.64021e-09
4345 2 0.002 0.0623925 -0.116015 2.92084e-05 1.99681e-10 -2.64831e-10 -6.67504e-10 4.07748e-06 4.35319e-10 1.33086e-08
4197 2 0.002 0.0554475 -0.115995 8.27109e-05 2.5926e-10 -2.60371e-10 -1.26376e-10 7.72945e-06 5.10899e-10 1.07468e-08
4487 2 0.002 0.0693198 -0.124032 -0.000600384 -5.42999e-11 -2.36883e-10 1.12734e-09 2.66418e-06 1.41713e-08 2.61592e-08
4416 2 0.002 0.0658667 -0.122045 -0.000637912 8.75169e-11 -1.7075e-10 -4.48024e-10 3.76561e-06 3.62449e-09 4.62163e-08
4488 2 0.002 0.0693227 -0.120018 -0.000207977 1.17159e-10 -1.83459e-10 -1.68898e-10 2.51599e-06 1.84466e-09 1.86804e-08
4417 2 0.002 0.0658611 -0.118023 -0.00015839 1.31093e-10 -3.54931e-10 6.71173e-10 2.88523e-06 1.06631e-09 1.92458e-08
4558 2 0.002 0.0727759 -0.122005 -7.9877e-05 1.34242e-10 -5.63463e-11 -8.02971e-10 1.65851e-06 3.17435e-09 1.57899e-08
637 2 0.002 -0.110825 -0.0959878 -0.000132682 3.65207e-11 1.57927e-11 2.22768e-11 8.11846e-06 1.18965e-09 1.4963e-08
694 2 0.002 -0.107353 -0.0979847 -0.000220914 7.18039e-11 4.76967e-11 3.2535e-10 9.44921e-06 1.53417e-09 2.25748e-08
695 2 0.002 -0.107328 -0.0939754 -0.000402685 5.47308e-11 3.76752e-11 -3.08058e-10 4.81227e-06 9.95945e-10 2.25435e-08
816 2 0.002 -0.100351 -0.0939484 -0.000919186 1.67521e-10 1.44629e-10 1.29715e-10 1.26041e-05 2.47528e-09 4.17115e-08
754 2 0.002 -0.103854 -0.0959673 -0.000544163 9.19121e-11 6.10944e-11 -2.67297e-10 5.35539e-06 1.01821e-09 3.08083e-08
878 2 0.002 -0.0968805 -0.0959391 -0.000877092 1.92994e-10 1.94837e-10 6.39719e-11 1.23969e-05 3.25061e-09 3.46951e-08
877 2 0.002 -0.0969228 -0.099947 -0.000459586 1.35426e-10 1.56797e-10 -1.24661e-10 3.27045e-06 1.48681e-09 2.27708e-08
753 2 0.002 -0.103887 -0.0999797 -0.000259364 7.08409e-11 5.72316e-11 9.93691e-11 5.19017e-06 1.77983e-09 2.99673e-08
814 2 0.002 -0.100424 -0.101967 -0.00025114 7.32384e-11 1.061e-10 1.61532e-10 3.1347e-06 1.49266e-09 2.63542e-08
815 2 0.002 -0.100387 -0.0979562 -0.000573869 1.2361e-10 1.10049e-10 -1.63904e-10 3.56903e-06 1.12489e-09 3.18622e-08
813 2 0.002 -0.100444 -0.105978 -7.28954e-05 2.73896e-11 5.79986e-11 -9.34081e-11 3.22731e-06 9.66407e-10 1.00968e-08
876 2 0.002 -0.0969565 -0.103959 -0.000169611 6.59679e-11 1.33401e-10 6.45723e-11 3.6885e-06 1.18245e-09 1.20846e-08
875 2 0.002 -0.0969841 -0.107977 -2.90165e-05 1.11628e-11 7.23079e-11 3.01963e-11 1.78696e-06 1.513e-09 8.31998e-09
1072 2 0.002 -0.0864434 -0.0939404 -0.000251675 3.00601e-10 1.32648e-10 -3.98998e-11 1.3762e-05 3.36483e-09 3.33342e-08
941 2 0.002 -0.0934221 -0.0979341 -0.000578235 2.02203e-10 1.98893e-10 -9.67075e-11 1.14291e-05 2.90109e-09 2.43869e-08
942 2 0.002 -0.0933706 -0.0939253 -0.00110867 2.31205e-10 2.43622e-10 9.53306e-11 1.59832e-05 9.59368e-09 4.70441e-08
1006 2 0.002 -0.0899267 -0.0959319 -0.000537959 2.41053e-10 2.13196e-10 9.48626e-11 1.29432e-05 3.31915e-09 2.57568e-08
940 2 0.002 -0.0934648 -0.101948 -0.00019994 1.18391e-10 1.74439e-10 -5.15552e-11 4.33659e-06 1.54021e-09 1.39794e-08
1005 2 0.002 -0.0899761 -0.0999455 -0.000128968 1.74402e-10 1.82486e-10 1.50649e-11 5.04678e-06 1.41367e-09 1.6549e-08
1779 2 0.002 -0.0518651 -0.106013 -0.000517389 1.60421e-11 2.83042e-10 3.19553e-10 6.90514e-06 2.08834e-09 5.79912e-08
1855 2 0.002 -0.0483979 -0.10403 -0.000701909 -2.96251e-11 3.55034e-10 5.22351e-11 4.65483e-06 4.74784e-09 4.63933e-08
1854 2 0.002 -0.0484203 -0.107995 -0.00147 -1.19821e-10 4.31379e-10 -1.53408e-10 9.0455e-06 1.88857e-08 1.00318e-07
1703 2 0.002 -0.0553331 -0.108004 -0.000192687 -1.59768e-11 2.36688e-10 7.22396e-11 5.75626e-06 1.19952e-09 3.91968e-08
1930 2 0.002 -0.0449507 -0.10603 -0.00148606 -6.86534e-11 3.57524e-10 4.28538e-12 8.62524e-06 2.01964e-08 7.20261e-08
2006 2 0.002 -0.0414769 -0.10805 -0.00182915 -7.37744e-11 2.52591e-10 -2.30993e-10 1.65102e-05 4.29728e-08 4.07741e-08
2084 2 0.002 -0.0379994 -0.106079 -0.00126568 -1.24471e-10 4.25078e-11 -4.81152e-11 8.84737e-06 9.79713e-09 1.39443e-08
2162 2 0.002 -0.0345091 -0.104099 -0.000934602 -1.75808e-10 -9.71002e-11 -3.10233e-11 2.8838e-06 7.46465e-09 7.27357e-09
2007 2 0.002 -0.0414679 -0.10406 -0.00116087 -7.54289e-11 2.01031e-10 1.25837e-10 1.10839e-05 6.9902e-09 2.16713e-08
2161 2 0.002 -0.0345379 -0.108098 -0.000893816 -1.76217e-10 -1.53724e-10 -5.25662e-11 2.57044e-06 8.69988e-09 1.93974e-08
2164 2 0.002 -0.0344379 -0.0960985 -0.000618363 -9.48304e-11 5.85133e-11 2.73438e-11 4.16259e-06 2.83507e-09 1.41194e-08
1931 2 0.002 -0.0449204 -0.102057 -0.000653588 -3.46154e-11 3.18035e-10 2.11201e-11 6.25908e-06 3.47212e-09 3.36178e-08
2085 2 0.002 -0.0379763 -0.102079 -0.000900286 -1.06736e-10 9.02012e-11 -5.09157e-11 7.3668e-06 4.99922e-09 8.5757e-09
2163 2 0.002 -0.0344758 -0.100096 -0.000836357 -1.56061e-10 -1.96813e-11 2.04611e-11 3.1627e-06 5.22182e-09 7.90987e-09
2008 2 0.002 -0.0414329 -0.100074 -0.000524005 -3.68064e-11 2.10639e-10 8.09369e-11 4.83079e-06 2.60524e-09 1.55748e-08
2086 2 0.002 -0.0379366 -0.0980855 -0.000483042 -9.71464e-11 1.84231e-10 -5.05571e-10 4.00662e-06 2.70012e-09 1.00873e-08
2087 2 0.002 -0.0378884 -0.094099 -3.14663e-05 6.3616e-11 8.879e-11 6.57952e-10 9.44526e-06 1.63181e-09 1.49589e-08
2009 2 0.002 -0.0413823 -0.0960919 8.55339e-05 5.17289e-11 1.43999e-10 4.57121e-10 9.93608e-06 1.24925e-09 1.4962e-08
92 1 0.015 -0.0194908 -0.0961402 -0.00443862 -1.24297e-08 -1.04591e-08 1.07484e-09 -7.59804e-06 0 1.62391e-06
2475 2 0.002 -0.0206378 -0.104175 -0.000256826 -2.48475e-10 -2.46252e-10 4.61722e-11 1.35348e-05 4.74892e-09 5.57141e-08
2240 2 0.002 -0.0310079 -0.10212 -0.000891212 -2.40033e-10 -1.95511e-10 -6.9391e-11 5.92978e-06 7.56269e-09 6.82195e-09
2319 2 0.002 -0.0275043 -0.100157 -0.00115471 -2.98243e-10 -2.56621e-10 -1.32845e-10 9.20609e-06 9.45709e-09 1.54841e-08
2318 2 0.002 -0.0275527 -0.104142 -0.000609432 -2.76502e-10 -2.8404e-10 1.40645e-10 7.39036e-06 6.24614e-09 8.67358e-09
2396 2 0.002 -0.0241245 -0.10614 -1.99153e-05 -2.57003e-10 -2.85682e-10 2.18948e-10 1.04746e-05 3.29234e-09 2.62348e-08
2556 2 0.002 -0.0170964 -0.0982364 -0.00136681 -2.26115e-10 -2.00433e-10 -1.68422e-10 1.98663e-05 4.928e-08 7.34338e-08
2477 2 0.002 -0.0204922 -0.0963321 -0.00258098 -3.5827e-10 -2.5429e-10 1.09521e-10 3.96197e-05 7.65066e-08 8.72639e-07
2398 2 0.002 -0.0240051 -0.0982223 -0.0017342 -3.42044e-10 -2.70299e-10 -5.48191e-11 1.71367e-05 3.75381e-08 5.61391e-08
2476 2 0.002 -0.0205603 -0.100247 -0.00136307 -3.03251e-10 -2.53743e-10 4.92292e-11 1.78229e-05 3.23317e-08 7.97468e-08
2241 2 0.002 -0.0309736 -0.0981191 -0.00101795 -2.03699e-10 -9.91979e-11 4.86832e-11 3.96722e-06 5.57834e-09 1.36415e-08
2320 2 0.002 -0.0274792 -0.0961602 -0.00145809 -2.66213e-10 -1.49713e-10 -6.22798e-11 1.2646e-05 9.02069e-09 3.29672e-08
2397 2 0.002 -0.0240545 -0.10219 -0.000923176 -3.0587e-10 -3.33222e-10 -1.23663e-10 1.13146e-05 1.0291e-08 2.73079e-08
2555 2 0.002 -0.0171668 -0.102183 -0.000374195 -1.8191e-10 -1.87533e-10 -1.84787e-10 1.49262e-05 7.72902e-09 5.26094e-08
2242 2 0.002 -0.0309471 -0.0941208 -0.00095713 -1.71786e-10 1.2117e-11 -1.78423e-10 5.44432e-06 2.32317e-09 2.88967e-08
2399 2 0.002 -0.0239964 -0.0942241 -0.00209447 -2.77771e-10 -1.67651e-10 3.09354e-11 2.21482e-05 5.43263e-08 1.12398e-07
2557 2 0.002 -0.0170533 -0.0942536 -0.00207935 -2.59951e-10 -2.03956e-10 -1.80319e-10 3.03066e-05 5.37044e-08 3.38334e-07
2239 2 0.002 -0.0310514 -0.106115 -0.000588007 -1.87336e-10 -2.96504e-10 -4.07259e-10 3.03193e-06 7.12434e-09 7.40795e-09
2317 2 0.002 -0.0276173 -0.108109 5.98775e-05 -2.2392e-10 -3.4711e-10 2.90308e-11 8.38046e-06 4.11137e-09 1.14452e-08
2635 2 0.002 -0.0137247 -0.100142 -0.000172094 -1.00001e-10 -6.24666e-11 -2.58164e-10 1.48895e-05 4.77625e-09 4.01498e-08
2636 2 0.002 -0.0136867 -0.0961565 -0.000832889 -2.03141e-10 -4.54454e-11 3.03308e-11 1.76437e-05 1.42198e-08 4.96364e-08
2716 2 0.002 -0.0102998 -0.0940729 -0.000102014 -8.88697e-11 7.52812e-11 1.17259e-10 1.48681e-05 2.70508e-09 3.3601e-08
3585 2 0.002 0.027679 -0.107862 -0.000131214 2.50336e-10 1.05441e-10 -2.42342e-10 5.13137e-06 3.15217e-09 6.56389e-08
3741 2 0.002 0.0345974 -0.107886 -0.000130551 4.18925e-10 2.65976e-10 1.33177e-10 1.18962e-05 1.56756e-09 2.8041e-08
4967 2 0.002 0.0936041 -0.0939735 -0.000445059 3.87173e-11 1.30604e-10 -2.78072e-10 3.71699e-06 1.43149e-10 8.91588e-09
4966 2 0.002 0.0935927 -0.0979811 -0.00017235 1.26949e-10 2.10518e-10 2.94593e-10 2.06115e-06 4.87956e-10 9.96974e-09
4902 2 0.002 0.0901424 -0.0959702 3.42879e-05 5.34336e-12 2.03126e-10 8.15663e-11 3.39516e-06 1.78355e-10 1.02668e-08
5091 2 0.002 0.100496 -0.101996 -0.000353576 2.01704e-10 1.99697e-10 -9.52029e-11 8.9554e-07 5.49193e-09 6.01409e-09
5153 2 0.002 0.103994 -0.100043 -0.000743027 3.45343e-10 5.76885e-10 1.50648e-09 3.8189e-06 3.49009e-08 2.02781e-08
5213 2 0.002 0.107532 -0.0981658 -0.00137239 4.76674e-10 4.97357e-10 -2.78936e-10 2.44373e-05 1.00502e-07 5.0727e-07
5030 2 0.002 0.0970634 -0.0959952 -0.000671389 1.8061e-10 1.60503e-10 -9.38277e-11 7.32341e-06 9.75692e-10 9.62446e-09
5092 2 0.002 0.100528 -0.0980208 -0.000831958 2.13053e-10 1.5701e-10 -8.679e-10 7.15238e-06 7.21235e-09 1.15263e-08
5093 2 0.002 0.100544 -0.0940324 -0.00116407 2.9578e-10 1.78938e-10 1.89808e-10 1.0165e-05 3.56078e-09 2.23043e-08
5154 2 0.002 0.10403 -0.0960891 -0.00135918 4.02649e-10 3.34013e-10 -2.63414e-10 1.36974e-05 3.9761e-08 4.18164e-08
5214 2 0.002 0.107526 -0.0941442 -0.00170273 3.4357e-10 6.94508e-10 -6.99756e-10 2.5064e-05 4.05056e-08 5.00608e-07
5029 2 0.002 0.097043 -0.0999904 -0.000351598 2.40384e-10 2.60341e-10 7.27177e-10 1.61353e-06 2.42764e-09 8.92226e-09
68 1 0.015 0.109078 -0.0977197 -0.00300032 5.88371e-08 8.40259e-08 1.32738e-09 -6.04173e-06 0 9.95378e-07
5090 2 0.002 0.100466 -0.105998 -7.20408e-05 8.98032e-12 7.95453e-11 -1.58981e-12 -9.19751e-08 2.45166e-09 1.57246e-09
5028 2 0.002 0.0970208 -0.10399 -4.89155e-05 7.19676e-11 1.44271e-10 -3.43445e-10 5.63385e-07 1.58658e-09 5.53556e-09
5271 2 0.002 0.110946 -0.096087 -0.000954408 -6.881e-10 9.05587e-10 4.48859e-09 6.4411e-06 6.84824e-08 1.54854e-07
638 2 0.002 -0.110811 -0.0919861 -0.000197295 5.11078e-11 2.04454e-11 2.71827e-10 8.90926e-06 1.37073e-09 1.99414e-08
639 2 0.002 -0.110802 -0.0879823 -0.000135036 1.101e-11 3.24466e-11 2.46034e-10 4.70132e-06 1.32338e-09 2.0893e-08
582 2 0.002 -0.114291 -0.0899937 -1.65852e-05 3.7587e-12 2.02208e-11 -3.51561e-10 6.50802e-06 1.61045e-09 8.53924e-09
881 2 0.002 -0.0968016 -0.0839252 -0.0013429 7.56115e-11 6.18047e-11 1.63174e-10 1.89682e-05 2.85913e-08 7.31751e-08
880 2 0.002 -0.0968117 -0.0879212 -0.00160674 1.04172e-10 1.39632e-10 -4.14274e-10 1.97264e-05 4.0459e-08 8.23859e-08
696 2 0.002 -0.107315 -0.0899715 -0.000465875 2.63646e-11 5.34014e-11 -1.57629e-10 3.46798e-06 8.33153e-10 2.54979e-08
697 2 0.002 -0.107305 -0.0859746 -0.000366446 -5.95483e-11 6.6318e-11 -2.02653e-10 2.65511e-06 6.89012e-10 2.74866e-08