ITEM: TIMESTEP
45000
ITEM: NUMBER OF ATOMS
112
ITEM: BOX BOUNDS ff ff ff
-2.5000000000000000e-01 2.5000000000000000e-01
-2.5000000000000000e-01 2.5000000000000000e-01
-1.0000000000000001e-01 1.0000000000000001e-01
ITEM: ATOMS id type radius x y z fx fy fz v_pressure c_bendingE c_stretchingE
98 1 0.015 -0.0129115 -0.146978 0 1.23672e-16 4.10466e-16 0 -0.000318202 0 0
51 1 0.015 0.0142445 -0.143775 0 -3.89265e-17 4.09939e-17 0 -0.00020084 0 0
93 1 0.015 0.0417054 -0.141616 0 5.69731e-17 4.01373e-17 0 -0.000387403 0 0
56 1 0.015 -0.067259 -0.128952 0 1.96388e-17 -2.35217e-16 0 -9.65355e-05 0 0
61 1 0.015 -0.040763 -0.14011 0 1.10945e-16 -6.9469e-17 0 -0.000121425 0 0
76 1 0.015 0.0660273 -0.130255 0 2.20454e-16 -1.33404e-16 0 -0.000319692 0 0
9 1 0.015 -0.0920058 -0.114438 0 -8.69857e-17 -1.42589e-16 0 -0.000212452 0 0
24 1 0.015 -0.0439874 -0.112165 0 1.7093e-16 -1.03164e-16 0 -0.000186646 0 0
103 1 0.015 -0.0185968 -0.121937 0 -6.54006e-17 -2.79596e-16 0 -0.000331178 0 0
20 1 0.015 0.029432 -0.118909 0 -8.95092e-17 2.6591e-17 0 -0.000283166 0 0
43 1 0.015 0.0886111 -0.115673 0 2.18056e-16 2.43456e-17 0 -0.000281534 0 0
88 1 0.015 -0.0684711 -0.10006 0 8.88788e-17 2.48687e-17 0 -0.00019312 0 0
92 1 0.015 -0.0202776 -0.0951996 0 -9.10492e-17 -1.32636e-17 0 -0.00022332 0 0
47 1 0.015 0.00484428 -0.108043 0 7.45156e-17 1.62423e-16 0 -0.000221593 0 0
31 1 0.015 0.0544122 -0.10509 0 -1.20603e-16 1.22795e-16 0 -0.000143567 0 0
68 1 0.015 0.108332 -0.0970295 0 -1.4455e-16 3.248e-16 0 -0.000240632 0 0
37 1 0.015 -0.119702 -0.0837914 0 -2.52668e-16 9.39936e-17 0 -0.00031805 0 0
90 1 0.015 -0.0931236 -0.0870623 0 1.82706e-16 -8.11452e-17 0 -0.000262467 0 0
33 1 0.015 -0.0452789 -0.0841267 0 -1.25458e-17 -3.86278e-17 0 -0.000202733 0 0
46 1 0.015 0.00329057 -0.0800164 0 -6.87756e-17 2.58254e-17 0 -0.000191209 0 0
45 1 0.015 0.0286338 -0.0919035 0 -8.92716e-17 -5.0229e-17 0 -0.000194602 0 0
53 1 0.015 0.0784112 -0.0893742 0 -6.06989e-17 2.20734e-16 0 -0.00011315 0 0
96 1 0.015 -0.0701122 -0.0717767 0 -9.52247e-17 -1.285e-16 0 -0.000197448 0 0
29 1 0.015 -0.0216984 -0.0677722 0 3.30203e-17 -1.23309e-16 0 -0.00021258 0 0
22 1 0.015 0.0262384 -0.0642608 0 2.4145e-17 -2.1325e-16 0 -0.000194585 0 0
52 1 0.015 0.0520728 -0.0771165 0 8.06693e-17 2.5221e-16 0 -0.000162304 0 0
112 1 0.015 0.0993925 -0.0701642 0 2.03335e-16 -1.96329e-16 0 -0.000240359 0 0
91 1 0.015 0.12573 -0.0756173 0 8.09313e-18 -9.86422e-17 0 -0.000324473 0 0
99 1 0.015 -0.134546 -0.0606014 0 -1.73985e-16 -9.75617e-18 0 -0.000295586 0 0
28 1 0.015 -0.0953486 -0.0591946 0 1.37007e-16 -6.11195e-18 0 -0.000162256 0 0
109 1 0.015 -0.0465217 -0.0564653 0 -3.44474e-17 1.06972e-16 0 -0.000224357 0 0
27 1 0.015 0.00123641 -0.0517683 0 -1.36293e-16 2.12716e-16 0 -0.000197891 0 0
30 1 0.015 0.0486113 -0.0489347 0 -2.17913e-17 -1.77075e-17 0 -0.000199512 0 0
25 1 0.015 0.0742826 -0.0609112 0 -2.52573e-16 3.71618e-17 0 -0.000242038 0 0
10 1 0.015 0.136103 -0.0508449 0 -3.98402e-17 4.3306e-17 0 -0.000288518 0 0
78 1 0.015 -0.142575 -0.0321492 0 -1.70339e-16 -3.77245e-17 0 -0.000115498 0 0
41 1 0.015 -0.116713 -0.0424884 0 7.33861e-17 1.33077e-16 0 -0.00039104 0 0
16 1 0.015 -0.0711711 -0.0439776 0 -4.22008e-17 3.60189e-17 0 -0.000200335 0 0
63 1 0.015 -0.0232257 -0.0397872 0 -1.27527e-16 5.88214e-17 0 -0.000270274 0 0
8 1 0.015 0.0232847 -0.0358101 0 -1.59456e-16 2.23845e-16 0 -0.000180882 0 0
107 1 0.015 0.0714566 -0.033917 0 -2.02071e-17 4.70682e-17 0 -0.000269574 0 0
106 1 0.015 0.108532 -0.0435926 0 8.27289e-17 -1.04448e-16 0 -0.000134759 0 0
44 1 0.015 -0.0940489 -0.0293885 0 -3.71021e-16 -1.76267e-16 0 -0.000234689 0 0
84 1 0.015 -0.0472703 -0.0290841 0 -2.62929e-16 -1.81765e-16 0 -0.000328083 0 0
110 1 0.015 -0.00210812 -0.0225028 0 -1.10032e-16 8.11057e-17 0 -0.000168428 0 0
75 1 0.015 0.0462463 -0.0208762 0 3.02896e-17 4.98172e-17 0 -0.000195698 0 0
87 1 0.015 0.0938823 -0.0195222 0 -4.8286e-17 1.22561e-16 0 -0.000283735 0 0
1 1 0.015 0.120255 -0.0170069 0 -3.55987e-16 9.78139e-17 0 -0.000302271 0 0
85 1 0.015 0.145063 -0.025598 0 3.29014e-16 7.91376e-17 0 -0.000380333 0 0
48 1 0.015 -0.145197 -0.00347305 0 -1.2276e-16 1.71828e-16 0 -9.42577e-05 0 0
73 1 0.015 -0.119453 -0.0155963 0 1.15531e-16 -1.05302e-16 0 -0.000192192 0 0
17 1 0.015 -0.0946041 -0.0018467 0 -1.8451e-17 -1.81816e-17 0 -0.000196846 0 0
2 1 0.015 -0.0703464 -0.015497 0 2.39926e-16 -5.17779e-17 0 -0.000231077 0 0
34 1 0.015 -0.0446726 -0.00232363 0 -2.54186e-17 -8.16537e-17 0 -0.000233083 0 0
58 1 0.015 0.0210439 -0.00758143 0 6.88963e-17 -3.94881e-18 0 -0.000208011 0 0
60 1 0.015 0.0694077 -0.00604377 0 6.2404e-17 -5.90849e-17 0 -0.000214373 0 0
54 1 0.015 -0.119295 0.0114892 0 2.32243e-17 4.65616e-17 0 -0.000175556 0 0
26 1 0.015 -0.0690409 0.0116664 0 -1.45865e-16 -4.86806e-18 0 -0.000207076 0 0
42 1 0.015 -0.0173864 0.00132777 0 -5.79038e-17 6.50782e-17 0 -0.000169082 0 0
95 1 0.015 0.0443133 0.00709394 0 -5.65477e-17 2.08713e-18 0 -0.000232317 0 0
70 1 0.015 0.093344 0.00822607 0 -1.95128e-16 -1.90339e-16 0 -0.000215018 0 0
18 1 0.015 0.120666 0.0105391 0 1.91662e-16 -5.57639e-17 0 -0.000249744 0 0
23 1 0.015 0.146304 0.00162205 0 -2.04404e-16 1.35412e-16 0 -0.000273738 0 0
36 1 0.015 -0.143661 0.0248084 0 -1.37772e-16 -1.01261e-16 0 -0.000197925 0 0
19 1 0.015 -0.0928617 0.0253386 0 -1.64204e-18 2.33039e-16 0 -0.000215484 0 0
72 1 0.015 -0.0443857 0.0250688 0 3.02486e-17 -1.49031e-16 0 -0.000239092 0 0
5 1 0.015 -0.0178579 0.0305112 0 -5.56045e-17 8.19905e-17 0 -0.00016921 0 0
94 1 0.015 0.00637425 0.0158722 0 -1.52772e-16 1.8874e-16 0 -0.00018952 0 0
102 1 0.015 0.0301125 0.0304507 0 -1.46878e-16 4.32234e-17 0 -0.000222342 0 0
77 1 0.015 0.0677215 0.0214309 0 -9.75176e-17 -6.83902e-17 0 -0.000252922 0 0
81 1 0.015 0.143177 0.0293961 0 -1.34237e-17 -7.11352e-18 0 -0.000150698 0 0
3 1 0.015 -0.116122 0.0385082 0 1.82123e-16 -1.88631e-16 0 -0.000298484 0 0
69 1 0.015 -0.0683434 0.0394722 0 -1.57534e-16 -1.13269e-16 0 -0.000201983 0 0
101 1 0.015 0.0061536 0.0443443 0 3.87837e-17 -5.62754e-17 0 -0.000181862 0 0
80 1 0.015 0.0535817 0.0447454 0 8.59829e-18 -4.09572e-17 0 -0.000259656 0 0
7 1 0.015 0.0907196 0.0355609 0 3.21015e-16 -1.59681e-18 0 -0.000310764 0 0
100 1 0.015 0.116951 0.0371653 0 -2.70434e-16 -3.15849e-17 0 -0.000339665 0 0
83 1 0.015 -0.138456 0.0521297 0 9.31444e-17 3.30603e-16 0 -0.000356878 0 0
15 1 0.015 -0.0920241 0.0534396 0 6.3705e-17 -4.72822e-17 0 -0.000202669 0 0
67 1 0.015 -0.0440659 0.052994 0 1.27752e-16 -1.97946e-16 0 -0.000220662 0 0
65 1 0.015 -0.0179697 0.0594184 0 -8.77017e-17 2.93926e-16 0 -0.000192831 0 0
14 1 0.015 0.0305118 0.0591242 0 -1.26938e-18 -1.91859e-17 0 -0.00017902 0 0
11 1 0.015 0.0767806 0.0580841 0 6.58275e-17 -1.51595e-16 0 -0.00035925 0 0
57 1 0.015 0.103732 0.061625 0 6.4228e-17 -5.94981e-17 0 -0.000192885 0 0
38 1 0.015 0.134883 0.0570896 0 4.30389e-16 3.38342e-16 0 -0.000230916 0 0
82 1 0.015 -0.115929 0.0666556 0 2.24949e-17 2.60085e-16 0 -0.000273204 0 0
12 1 0.015 -0.0678347 0.0677615 0 -1.69929e-16 -1.57403e-17 0 -0.000196344 0 0
49 1 0.015 0.00631316 0.0720904 0 2.67463e-17 4.36425e-16 0 -0.000214386 0 0
62 1 0.015 0.0551632 0.0740408 0 7.60411e-17 -1.12443e-16 0 -0.000190805 0 0
105 1 0.015 -0.115156 0.0928833 0 8.17333e-17 -6.11066e-17 0 -0.000387926 0 0
104 1 0.015 -0.0910372 0.0816926 0 -1.67654e-16 -9.16722e-17 0 -0.000204401 0 0
50 1 0.015 -0.0444444 0.0815383 0 5.2405e-17 1.76823e-16 0 -0.000209913 0 0
4 1 0.015 -0.018377 0.0880826 0 9.82658e-17 3.56103e-17 0 -0.000184468 0 0
89 1 0.015 0.0313412 0.0873215 0 -6.32261e-17 9.70541e-18 0 -0.000203656 0 0
13 1 0.015 0.0844909 0.0841229 0 1.18191e-16 1.19913e-16 0 -0.000207005 0 0
55 1 0.015 0.121869 0.0815031 0 -6.99511e-17 -1.40953e-16 0 -0.000305905 0 0
40 1 0.015 -0.0680667 0.0976743 0 1.32194e-16 1.62464e-16 0 -0.000100945 0 0
97 1 0.015 0.00649681 0.0985342 0 6.72533e-17 7.30639e-17 0 -0.000362709 0 0
74 1 0.015 0.0623635 0.101322 0 -1.80226e-16 -9.27744e-17 0 -0.000211191 0 0
64 1 0.015 0.10464 0.102455 0 -2.1614e-16 8.70095e-17 0 -0.000312573 0 0
21 1 0.015 -0.0942529 0.110489 0 7.38355e-17 2.54456e-17 0 -0.000181774 0 0
32 1 0.015 -0.0424769 0.109919 0 1.848e-16 -2.33021e-16 0 -0.000150922 0 0
6 1 0.015 -0.0151817 0.116841 0 1.31658e-16 -3.54281e-18 0 -0.000138452 0 0
86 1 0.015 0.0127101 0.123263 0 7.17263e-17 -3.99396e-16 0 -0.000365197 0 0
66 1 0.015 0.038308 0.1143 0 2.10239e-16 1.29789e-16 0 -0.000224884 0 0
71 1 0.015 0.0835145 0.119567 0 1.876e-16 3.2261e-17 0 -0.00026046 0 0
111 1 0.015 -0.0720173 0.126175 0 -1.59223e-16 -2.95193e-16 0 -0.000247471 0 0
108 1 0.015 -0.0475994 0.137734 0 2.12841e-16 1.38563e-16 0 -0.000284235 0 0
59 1 0.015 0.0594659 0.132868 0 -1.37949e-16 -1.72922e-16 0 -0.000213187 0 0
39 1 0.015 -0.0214882 0.144159 0 -1.633e-16 1.57725e-16 0 -0.000297014 0 0
35 1 0.015 0.00527152 0.147608 0 -1.14021e-17 3.99648e-16 0 -0.000361763 0 0
79 1 0.015 0.0331678 0.142326 0 -3.87424e-17 -4.66646e-16 0 -0.000166754 0 0
