ITEM: TIMESTEP
300000
ITEM: NUMBER OF ATOMS
5843
ITEM: BOX BOUNDS ff ff ff
-2.5000000000000000e-01 2.5000000000000000e-01
-2.5000000000000000e-01 2.5000000000000000e-01
-1.0000000000000001e-01 1.0000000000000001e-01
ITEM: ATOMS id type radius x y z fx fy fz v_pressure c_bendingE c_stretchingE
2545 2 0.002 -0.0173246 -0.141976 -0.000266803 -2.14282e-11 1.10451e-10 9.00137e-11 3.05266e-06 2.58396e-09 9.37606e-09
2465 2 0.002 -0.0207817 -0.143989 -1.2006e-05 9.43789e-12 3.53479e-11 -1.6802e-10 3.13113e-06 2.34597e-09 1.74167e-09
2703 2 0.002 -0.0103959 -0.145981 -0.000198902 -6.47685e-11 4.04911e-11 3.91964e-12 6.54894e-06 2.24855e-09 1.05919e-08
2862 2 0.002 -0.00347462 -0.145981 -0.000198571 -1.16761e-10 -1.32628e-11 3.56978e-11 3.28784e-06 2.51225e-09 1.07948e-08
2863 2 0.002 -0.00349053 -0.141967 -0.000597637 -2.24931e-10 -5.65488e-11 -3.84837e-10 2.65085e-06 1.21855e-09 1.69814e-08
2783 2 0.002 -0.00694343 -0.143975 -0.000416467 -1.61113e-10 6.05682e-11 1.42431e-10 2.70226e-06 2.54907e-09 2.00502e-08
2704 2 0.002 -0.0104109 -0.141964 -0.000609721 -1.55383e-10 1.07322e-10 -1.79841e-10 7.8288e-06 1.34045e-09 1.64135e-08
2624 2 0.002 -0.0138629 -0.143978 -0.000284443 -5.75061e-11 9.89709e-11 2.12192e-10 3.42711e-06 2.537e-09 1.19828e-08
2942 2 0.002 -1.92473e-05 -0.143977 -0.000247143 -2.17654e-10 -5.14847e-11 4.35116e-10 2.3193e-06 2.77757e-09 1.23497e-08
3022 2 0.002 0.00344456 -0.141981 -0.00013361 -1.39802e-10 -3.13201e-10 -7.69461e-10 3.15181e-06 3.35536e-09 3.64617e-08
3655 2 0.002 0.03119 -0.14198 -0.000252253 2.22525e-10 -6.63666e-11 -1.44576e-10 6.2435e-06 1.97723e-09 8.66984e-09
3340 2 0.002 0.0173055 -0.141992 -0.000100242 1.49159e-10 -3.35097e-10 -1.20793e-10 6.07388e-06 1.19225e-09 6.66794e-09
3498 2 0.002 0.0242553 -0.141984 -0.000256187 2.96711e-10 -2.0239e-10 6.87774e-11 2.78481e-06 9.40789e-10 6.10597e-09
3419 2 0.002 0.0207846 -0.143987 -9.50625e-05 1.35851e-10 -1.72678e-10 -7.68014e-11 4.21459e-06 8.06253e-10 2.785e-09
3576 2 0.002 0.0277183 -0.143985 -0.000138456 1.59565e-10 -9.37947e-11 1.0129e-10 4.98073e-06 1.13574e-09 4.99184e-09
63 1 0.015 -0.0572089 -0.134807 -0.00109052 4.55297e-09 3.04129e-09 1.23965e-09 -1.94828e-06 0 4.20581e-07
1622 2 0.002 -0.0588966 -0.133986 -8.41749e-05 -4.67515e-11 1.58664e-10 -3.12217e-10 1.9238e-06 6.30887e-09 1.18133e-08
1697 2 0.002 -0.0554458 -0.131989 -9.92045e-05 -1.50351e-10 3.0656e-10 -4.50949e-11 7.49749e-06 1.11449e-08 4.42173e-07
1696 2 0.002 -0.0554255 -0.135992 -6.53098e-05 -5.74145e-11 9.63157e-11 -2.13548e-10 2.68286e-06 6.30935e-09 1.28835e-09
2547 2 0.002 -0.0173606 -0.133942 -0.000845431 1.98111e-11 2.87459e-10 2.14462e-10 9.53605e-06 2.10076e-09 1.74772e-08
2468 2 0.002 -0.0208091 -0.131951 -0.000384456 2.57402e-11 1.34508e-10 2.02915e-10 4.44241e-06 1.76946e-09 1.55497e-08
2548 2 0.002 -0.0173765 -0.129924 -0.00104012 3.08189e-13 3.05367e-10 -1.5919e-10 1.17477e-05 4.11051e-09 2.58413e-08
2549 2 0.002 -0.0173882 -0.125912 -0.00102561 7.42952e-11 3.24935e-10 5.94266e-11 1.29557e-05 5.92401e-09 3.04247e-08
2546 2 0.002 -0.0173424 -0.137959 -0.000565439 -3.67729e-11 1.95697e-10 -6.82085e-11 3.81864e-06 1.19433e-09 1.16966e-08
2467 2 0.002 -0.0208017 -0.135967 -0.000263342 -3.77068e-11 1.18824e-10 -2.72254e-10 3.80928e-06 1.11821e-09 1.34092e-08
2469 2 0.002 -0.0208154 -0.127939 -0.000373896 6.12002e-11 9.91892e-11 2.3236e-10 9.86367e-06 1.71918e-09 1.70442e-08
2466 2 0.002 -0.0207921 -0.139979 -0.000104379 2.09059e-11 1.0208e-10 1.46786e-10 5.82368e-06 9.85332e-10 7.69687e-09
85 1 0.015 -0.00911124 -0.126133 -0.00488718 3.16724e-09 -1.38849e-08 -3.59358e-09 -5.78229e-06 0 1.21634e-06
2708 2 0.002 -0.0105469 -0.12587 -0.00277563 1.00954e-10 4.37142e-10 -1.6645e-11 3.50151e-05 5.95129e-08 6.45727e-07
2867 2 0.002 -0.00356408 -0.125908 -0.00220733 1.00749e-10 1.98317e-10 -2.77072e-10 1.90051e-05 3.40422e-08 5.91483e-08
2627 2 0.002 -0.0139277 -0.131923 -0.00151206 -2.69316e-11 3.68041e-10 -1.17703e-10 1.28487e-05 6.02084e-09 2.89194e-08
2628 2 0.002 -0.0139568 -0.127898 -0.00183195 5.80436e-11 4.40328e-10 -8.142e-12 1.75055e-05 2.54915e-08 5.64369e-08
2706 2 0.002 -0.0104594 -0.133932 -0.00164847 -1.01289e-10 2.87746e-10 -2.19248e-10 1.30563e-05 5.35332e-09 3.64492e-08
2707 2 0.002 -0.0104988 -0.12991 -0.00224161 8.24539e-12 3.88845e-10 2.01989e-11 1.88648e-05 4.34507e-08 6.17279e-08
2786 2 0.002 -0.00701185 -0.131929 -0.00210318 -6.47966e-11 2.06778e-10 -1.45135e-10 8.49307e-06 1.83318e-08 6.75644e-08
2787 2 0.002 -0.00704581 -0.127903 -0.00280128 5.65904e-11 3.03444e-10 2.48066e-10 3.13378e-05 5.00488e-08 4.68308e-07
2866 2 0.002 -0.00355493 -0.129929 -0.00211592 -2.97309e-11 9.69665e-11 1.67708e-10 8.60388e-06 1.50504e-08 7.20765e-08
2946 2 0.002 -8.59043e-05 -0.12794 -0.00172235 3.17085e-11 -1.72353e-10 -3.7578e-11 1.24966e-05 5.71845e-09 3.08387e-08
2784 2 0.002 -0.00696107 -0.139959 -0.000911067 -2.15681e-10 1.15378e-10 8.46045e-11 4.63941e-06 1.34635e-09 2.44965e-08
2625 2 0.002 -0.0138769 -0.139959 -0.000671792 -1.0804e-10 1.6648e-10 -2.38537e-10 7.75467e-06 1.42274e-09 1.45004e-08
2705 2 0.002 -0.0104313 -0.137949 -0.00110242 -1.36672e-10 2.573e-10 2.38746e-10 9.73284e-06 1.9537e-09 2.37982e-08
2785 2 0.002 -0.00698343 -0.135945 -0.00146826 -1.705e-10 1.737e-10 -2.24819e-11 5.96557e-06 3.19999e-09 3.81406e-08
2864 2 0.002 -0.00350795 -0.137958 -0.00109421 -2.50866e-10 3.96736e-11 2.81132e-10 2.52491e-06 1.34042e-09 2.91383e-08
2626 2 0.002 -0.0138997 -0.135942 -0.00109441 -4.75772e-11 3.19799e-10 2.11635e-10 9.81902e-06 1.94778e-09 1.94317e-08
2865 2 0.002 -0.00353088 -0.133948 -0.00163328 -1.22838e-10 -1.09966e-11 -3.17586e-10 4.2315e-06 4.61508e-09 4.31732e-08
2945 2 0.002 -7.59712e-05 -0.131953 -0.0015235 -7.00787e-11 -2.19954e-10 -6.26272e-11 5.88264e-06 3.46962e-09 3.91751e-08
2944 2 0.002 -5.50891e-05 -0.135963 -0.00110268 -2.06138e-10 -1.83955e-10 1.45249e-10 2.5652e-06 1.19216e-09 3.34486e-08
2943 2 0.002 -3.24906e-05 -0.139969 -0.000637 -2.64571e-10 -1.43621e-10 1.26212e-10 3.04307e-06 8.63878e-10 2.64037e-08
3023 2 0.002 0.0034193 -0.137976 -0.000567215 -1.9951e-10 -3.70589e-10 7.47392e-11 3.06538e-06 1.79239e-09 2.94877e-08
3103 2 0.002 0.00687815 -0.135989 -0.000556432 -5.02096e-11 -6.74105e-10 -1.03226e-10 4.24091e-06 1.53751e-09 1.97581e-08
3104 2 0.002 0.00687079 -0.131985 -0.00091556 2.44816e-11 -7.70058e-10 3.09498e-10 3.70928e-06 2.19144e-09 1.27087e-08
3024 2 0.002 0.00340128 -0.133973 -0.00100543 -1.02578e-10 -4.72148e-10 1.40606e-10 2.30035e-06 1.64725e-09 2.60612e-08
3184 2 0.002 0.0103504 -0.129992 -0.000869709 1.70209e-10 -1.02555e-09 1.76106e-10 0.0058622 2.4505e-09 6.28395e-09
3263 2 0.002 0.0138308 -0.131996 -0.000753209 2.77042e-10 -1.03064e-09 7.50377e-11 5.71228e-06 1.45035e-09 5.71333e-09
3183 2 0.002 0.0103501 -0.133995 -0.000630567 1.13293e-10 -9.03453e-10 -3.79314e-11 6.82174e-06 1.57968e-09 8.48577e-09
3025 2 0.002 0.0033919 -0.129966 -0.00128465 8.15811e-12 -5.23646e-10 6.70167e-11 9.03967e-06 2.8803e-09 1.91781e-08
3026 2 0.002 0.00339128 -0.125958 -0.00127902 7.79334e-11 -4.94804e-10 -6.49499e-11 9.05119e-06 3.16628e-09 1.50674e-08
3105 2 0.002 0.00687012 -0.127978 -0.00104619 1.18696e-10 -8.33229e-10 -1.96511e-10 6.81702e-06 2.99408e-09 8.96874e-09
3264 2 0.002 0.0138353 -0.127993 -0.00087543 2.61024e-10 -1.12119e-09 -2.55936e-11 0.00504727 2.65425e-09 5.11446e-09
3185 2 0.002 0.0103552 -0.125988 -0.000853521 1.63443e-10 -1.04957e-09 9.922e-11 5.42517e-06 3.31275e-09 5.74513e-09
3102 2 0.002 0.00689243 -0.139994 -6.34884e-05 -1.54372e-10 -4.54003e-10 1.22787e-10 5.22051e-06 1.16315e-08 3.46583e-08
3182 2 0.002 0.0103546 -0.137997 -0.00022542 8.40369e-12 -6.29112e-10 5.2554e-10 8.21169e-06 2.02204e-09 1.38566e-08
3262 2 0.002 0.013829 -0.135995 -0.000450444 2.08775e-10 -8.31041e-10 3.82412e-11 6.49614e-06 8.583e-10 6.82224e-09
3261 2 0.002 0.0138308 -0.139994 -7.37987e-05 9.9193e-11 -5.22799e-10 2.9623e-10 7.10214e-06 4.04368e-09 8.27964e-09
3501 2 0.002 0.0242741 -0.129977 -0.00123506 4.83986e-10 -5.39853e-10 3.74675e-11 0.00686351 1.28322e-09 1.06714e-08
3579 2 0.002 0.0277466 -0.131969 -0.00125037 5.20927e-10 -2.69636e-10 2.05144e-11 7.72129e-06 8.56499e-10 1.26021e-08
3423 2 0.002 0.0207983 -0.127985 -0.00112241 3.83076e-10 -8.27382e-10 -1.50187e-10 0.00583816 1.93285e-09 8.10376e-09
3421 2 0.002 0.0207869 -0.135985 -0.000651679 4.69509e-10 -6.3676e-10 -1.31488e-11 6.09467e-06 2.94298e-10 7.51688e-09
3499 2 0.002 0.0242607 -0.13798 -0.000587532 4.75151e-10 -3.98138e-10 -2.11161e-10 6.23431e-06 2.33995e-10 7.30579e-09
3577 2 0.002 0.0277292 -0.139976 -0.000456794 3.92802e-10 -1.96458e-10 -1.08126e-10 6.07678e-06 6.11453e-10 7.02329e-09
3343 2 0.002 0.0173148 -0.129993 -0.000913917 3.83205e-10 -1.00903e-09 1.59781e-10 0.00541943 1.59606e-09 6.30825e-09
3344 2 0.002 0.0173211 -0.125991 -0.000941536 2.74459e-10 -1.02933e-09 -7.83787e-11 2.50458e-06 2.83936e-09 5.89502e-09
3422 2 0.002 0.0207927 -0.131987 -0.000944423 4.89044e-10 -7.74253e-10 9.02502e-11 0.00606985 8.20707e-10 8.15591e-09
3500 2 0.002 0.0242678 -0.133979 -0.00093613 5.49843e-10 -4.88345e-10 1.3082e-10 0.00666374 4.76763e-10 9.21336e-09
3578 2 0.002 0.0277387 -0.135972 -0.000852278 5.32011e-10 -2.24177e-10 2.8639e-10 7.03e-06 4.70553e-10 9.62409e-09
3502 2 0.002 0.0242791 -0.125972 -0.00139926 3.25725e-10 -4.88626e-10 1.80231e-10 0.00704712 2.50066e-09 1.18134e-08
3580 2 0.002 0.0277524 -0.127962 -0.00158427 3.7019e-10 -2.4089e-10 -2.30303e-10 8.39727e-06 2.03001e-09 1.56988e-08
3342 2 0.002 0.01731 -0.133992 -0.000688983 3.90083e-10 -8.73214e-10 9.7766e-11 5.9219e-06 6.26576e-10 6.86383e-09
3656 2 0.002 0.0312035 -0.13797 -0.000668408 4.16276e-10 -6.33643e-11 1.71206e-10 7.43955e-06 7.04837e-10 1.1517e-08
3657 2 0.002 0.0312135 -0.133964 -0.0011428 4.8313e-10 -8.53051e-11 -7.33532e-11 8.38928e-06 6.08202e-10 1.52256e-08
3658 2 0.002 0.0312214 -0.129956 -0.00161154 3.97093e-10 -4.8351e-11 -2.38558e-10 3.17495e-06 1.28465e-09 1.98884e-08
3341 2 0.002 0.0173065 -0.13799 -0.000375093 2.96555e-10 -6.49066e-10 -1.41233e-10 6.16981e-06 6.51424e-10 7.02214e-09
3420 2 0.002 0.0207826 -0.139984 -0.000340006 3.49803e-10 -3.98328e-10 2.18294e-10 5.69781e-06 4.37606e-10 5.83972e-09
3659 2 0.002 0.031226 -0.125942 -0.0020151 2.69756e-10 1.32499e-10 5.72346e-10 5.52032e-06 3.41347e-09 2.61742e-08
3734 2 0.002 0.0346723 -0.135965 -0.000902427 3.76802e-10 7.83188e-12 -6.1534e-11 9.03824e-06 6.8194e-10 2.14929e-08
3889 2 0.002 0.0415836 -0.135966 -0.000794581 1.56821e-10 3.97097e-11 1.66762e-10 4.86863e-06 1.3147e-09 2.68215e-08
3966 2 0.002 0.0450436 -0.133966 -0.000930413 9.49891e-11 -2.5017e-11 -1.74037e-11 3.37668e-06 9.36164e-10 2.9987e-08
3733 2 0.002 0.03466 -0.139976 -0.000371887 2.27959e-10 2.2102e-11 2.1589e-10 8.35749e-06 3.77731e-09 1.78906e-08
3811 2 0.002 0.0381216 -0.137974 -0.000561711 2.20321e-10 1.50062e-11 -1.84477e-11 1.01862e-05 3.92926e-09 3.4752e-08
3888 2 0.002 0.0415709 -0.139979 -0.000263377 6.67433e-11 -2.66361e-11 -6.46834e-11 8.45603e-06 3.62027e-09 1.71955e-08
3965 2 0.002 0.0450369 -0.137979 -0.000389229 5.44619e-11 -3.11182e-11 -5.45995e-11 4.59939e-06 4.08166e-09 2.18493e-08
3891 2 0.002 0.0416078 -0.127936 -0.0020556 9.71719e-11 1.1198e-10 1.19599e-12 7.07415e-06 3.12357e-09 5.52179e-08
3736 2 0.002 0.0346909 -0.12794 -0.00202452 2.64729e-10 2.12058e-10 3.35655e-10 6.12716e-06 2.09749e-09 3.47059e-08
3813 2 0.002 0.0381467 -0.129945 -0.00180133 2.29414e-10 1.75881e-10 1.83937e-10 6.24637e-06 1.69379e-09 4.35636e-08
3890 2 0.002 0.0415954 -0.131954 -0.00140768 1.67095e-10 6.81746e-11 3.54197e-11 3.80109e-06 1.17983e-09 3.83991e-08
3967 2 0.002 0.0450524 -0.129951 -0.00151116 7.4303e-11 -1.97522e-11 3.68356e-11 2.88746e-06 1.44671e-09 3.74127e-08
3735 2 0.002 0.0346828 -0.131955 -0.00146688 3.71839e-10 7.59265e-11 -5.10272e-12 3.42785e-06 8.05057e-10 2.66592e-08
3812 2 0.002 0.0381352 -0.13396 -0.00117356 2.83531e-10 5.08389e-11 -1.47011e-10 1.0649e-05 6.14682e-10 3.43288e-08
3968 2 0.002 0.045066 -0.125933 -0.00208895 3.01777e-11 -2.58113e-11 8.53469e-11 4.74385e-06 4.28593e-09 4.80302e-08
3814 2 0.002 0.0381565 -0.125923 -0.00245067 8.18523e-11 1.96802e-10 -1.99376e-10 1.60708e-05 5.47121e-09 6.31773e-08
4042 2 0.002 0.0484972 -0.131966 -0.000938441 7.10572e-11 -1.41565e-10 -1.75145e-10 2.37838e-06 1.41851e-09 2.62983e-08
4041 2 0.002 0.0484961 -0.135981 -0.000428954 1.639e-11 -4.3065e-11 1.4183e-10 2.38733e-06 4.61164e-09 2.62318e-08
4043 2 0.002 0.0485062 -0.127951 -0.00142053 -3.22101e-12 -1.3614e-10 4.58741e-10 2.71313e-06 1.75778e-09 2.95616e-08
4119 2 0.002 0.0519587 -0.125954 -0.00113379 4.37556e-11 -3.65422e-10 2.84298e-10 3.23775e-06 1.66104e-09 2.29894e-08
4118 2 0.002 0.0519518 -0.129966 -0.000811305 1.1501e-10 -3.03874e-10 -4.49721e-10 4.19479e-06 1.41532e-09 1.74693e-08
4194 2 0.002 0.0554088 -0.127972 -0.000522704 8.7003e-11 -3.91689e-10 2.39449e-10 7.66368e-06 9.75031e-10 1.68594e-08
4117 2 0.002 0.051948 -0.13398 -0.000423048 1.98378e-11 -1.19169e-10 1.85781e-10 2.58767e-06 3.74504e-09 1.77336e-08
4192 2 0.002 0.0554153 -0.135987 -0.000116509 2.46512e-11 -1.04577e-10 -3.0124e-11 2.25384e-06 3.3247e-09 4.64534e-09
4193 2 0.002 0.0554075 -0.131976 -0.000301011 3.93084e-11 -2.25862e-10 3.76671e-10 2.94952e-06 2.62193e-09 8.29348e-09
4269 2 0.002 0.0588624 -0.125986 -0.000144142 1.29502e-10 -4.59716e-10 3.57341e-10 6.91044e-06 1.89757e-09 1.49005e-08
938 2 0.002 -0.0935228 -0.109989 -0.000321453 2.05274e-10 -1.55003e-10 1.3587e-10 1.59164e-06 3.40097e-09 1.07928e-08
1068 2 0.002 -0.0865942 -0.109994 -0.000341472 2.66414e-10 -2.30179e-10 1.80341e-10 2.21792e-06 2.58019e-09 1.36559e-08
1002 2 0.002 -0.0900636 -0.111987 -0.000199275 1.99385e-10 -1.91812e-10 1.16698e-10 2.11624e-06 3.2779e-09 4.83141e-09
2470 2 0.002 -0.0208148 -0.123937 -0.000169717 3.56009e-11 5.60477e-11 9.35309e-11 5.36035e-06 1.33712e-09 2.3577e-08
2550 2 0.002 -0.0173774 -0.121915 -0.00069423 -3.19008e-11 3.75699e-10 -4.14508e-10 1.30993e-05 3.64406e-09 3.77915e-08
2551 2 0.002 -0.017359 -0.117926 -0.000168144 -4.88981e-12 3.40853e-10 1.12953e-11 1.13185e-05 2.04635e-09 2.54415e-08
2630 2 0.002 -0.0139307 -0.119897 -0.00103895 8.55736e-11 4.97742e-10 2.50907e-10 1.44302e-05 6.33477e-09 4.1986e-08
2788 2 0.002 -0.00704633 -0.123864 -0.00259147 8.54261e-11 4.32056e-10 -3.51629e-10 3.16041e-05 4.83367e-08 4.54041e-07
2789 2 0.002 -0.00701365 -0.119894 -0.00161093 6.28635e-11 5.15461e-10 8.87698e-11 1.78894e-05 1.53887e-08 6.87912e-08
2868 2 0.002 -0.00355616 -0.121908 -0.00176101 7.36624e-11 3.0131e-10 -2.03154e-10 1.76054e-05 1.29339e-08 6.47596e-08
2710 2 0.002 -0.0104627 -0.117899 -0.00103628 3.5487e-11 6.13074e-10 2.71487e-10 1.46511e-05 5.34147e-09 4.83396e-08
2629 2 0.002 -0.0139588 -0.123887 -0.00167849 9.57687e-11 4.81294e-10 4.13626e-12 1.85195e-05 2.39881e-08 7.38066e-08
2709 2 0.002 -0.0105011 -0.121874 -0.00192442 1.38307e-10 4.79015e-10 3.5631e-10 2.03532e-05 4.11398e-08 7.93907e-08
2947 2 0.002 -8.48877e-05 -0.123934 -0.00154719 6.3796e-11 -8.62817e-11 1.02721e-11 1.28283e-05 5.02e-09 3.09092e-08
2869 2 0.002 -0.00352948 -0.117936 -0.000994246 -1.99511e-11 3.40726e-10 3.76559e-10 1.33723e-05 3.80303e-09 3.5219e-08
2948 2 0.002 -7.03756e-05 -0.119953 -0.00102316 4.92599e-11 6.07285e-11 -1.61577e-10 1.24436e-05 2.74371e-09 3.58106e-08
2790 2 0.002 -0.00698514 -0.115926 -0.000713433 -4.6423e-11 6.48125e-10 1.50485e-10 1.30543e-05 3.29029e-09 3.84335e-08
2631 2 0.002 -0.0139005 -0.115914 -0.000316491 -7.58746e-11 6.50889e-10 -2.30599e-10 1.18636e-05 2.1448e-09 3.09711e-08
2711 2 0.002 -0.0104331 -0.113922 -0.000209276 -1.36374e-10 8.08008e-10 -2.19273e-10 5.93333e-06 2.06447e-09 3.64318e-08
2870 2 0.002 -0.00350442 -0.113968 -0.000218714 -7.62678e-11 6.3983e-10 -4.81184e-10 1.0805e-05 1.67596e-09 2.10176e-08
2949 2 0.002 -4.42546e-05 -0.115987 -0.000332651 -7.60322e-11 1.39979e-10 2.94556e-10 5.49742e-06 1.22033e-09 2.55691e-08
3107 2 0.002 0.00688944 -0.120004 -0.000381669 4.30711e-11 -6.25781e-10 -2.45643e-10 7.99698e-06 2.0503e-09 1.57592e-08
3266 2 0.002 0.0138601 -0.120023 -0.000246522 2.16827e-11 -9.26005e-10 -1.84506e-10 5.96475e-06 4.41607e-09 6.85686e-09
3186 2 0.002 0.010366 -0.122 -0.000518384 9.14209e-11 -9.31327e-10 -2.66873e-10 5.92649e-06 3.37784e-09 7.39023e-09
3027 2 0.002 0.00339953 -0.121966 -0.000940542 4.07548e-11 -4.18345e-10 1.92046e-10 4.78702e-06 2.41193e-09 2.03456e-08
3106 2 0.002 0.00687586 -0.123978 -0.000871408 1.00092e-10 -7.87619e-10 -4.94329e-11 3.4744e-06 2.96824e-09 9.59926e-09
3265 2 0.002 0.0138437 -0.123995 -0.000724742 1.67818e-10 -1.07694e-09 -1.89746e-10 4.9293e-06 3.70704e-09 5.18727e-09
3028 2 0.002 0.00341847 -0.118001 -0.000342027 3.98166e-11 -1.52032e-10 -5.37563e-10 5.08581e-06 1.34533e-09 2.70721e-08
3583 2 0.002 0.0277685 -0.115972 -0.0013503 -2.4681e-10 2.66321e-10 -2.34887e-10 2.75237e-06 2.41719e-09 3.37183e-08
3584 2 0.002 0.0277812 -0.11202 -0.000768183 -1.3492e-10 2.82386e-10 7.98176e-10 3.48645e-06 1.83811e-09 3.20567e-08
3345 2 0.002 0.0173326 -0.122001 -0.000684792 1.0703e-10 -9.25552e-10 -9.39926e-11 1.74295e-06 3.28969e-09 6.71797e-09
3424 2 0.002 0.0208051 -0.123984 -0.00108744 2.1455e-10 -7.63297e-10 4.98586e-11 2.89154e-06 2.78901e-09 8.41975e-09
3426 2 0.002 0.0208397 -0.116047 -0.000215428 -1.97197e-10 -3.56369e-10 -1.84801e-10 2.65831e-06 2.21849e-09 2.3592e-08
3503 2 0.002 0.0242849 -0.12197 -0.00133939 3.67928e-11 -3.40467e-10 -4.60623e-10 3.73663e-06 3.00262e-09 1.41677e-08
3504 2 0.002 0.0242965 -0.11799 -0.00101218 -1.00171e-10 -1.91039e-10 1.15398e-10 2.10936e-06 2.15696e-09 2.23169e-08
3505 2 0.002 0.0243134 -0.114037 -0.000482354 -2.67149e-10 4.66957e-11 -6.46039e-11 3.04011e-06 1.15348e-09 3.0442e-08
3581 2 0.002 0.0277559 -0.123952 -0.00176949 1.52086e-10 -1.16624e-10 -7.57981e-11 9.29483e-06 3.77205e-09 1.99399e-08
3582 2 0.002 0.0277587 -0.119949 -0.00170878 4.09438e-11 1.89449e-11 5.78396e-10 5.11112e-06 3.77936e-09 2.49985e-08
3425 2 0.002 0.0208182 -0.12 -0.000774127 -1.45973e-12 -5.94338e-10 -9.59977e-11 2.14833e-06 2.5435e-09 1.22981e-08
3346 2 0.002 0.0173547 -0.118044 -0.000116447 -8.16321e-11 -7.107e-10 -2.30982e-10 2.21762e-06 3.75053e-09 1.14668e-08
3660 2 0.002 0.0312276 -0.121925 -0.00225904 -2.56508e-11 2.10409e-10 -3.27594e-10 1.32722e-05 7.10274e-09 3.9425e-08
3661 2 0.002 0.0312266 -0.11792 -0.00218026 -2.66583e-10 4.04737e-10 -5.95429e-10 1.45186e-05 8.98825e-09 4.41246e-08
3662 2 0.002 0.0312384 -0.113951 -0.0016787 -2.1561e-10 5.18095e-10 5.64735e-11 1.45294e-05 4.91054e-09 5.30409e-08
3663 2 0.002 0.0312465 -0.110005 -0.000910006 -2.65575e-10 7.74418e-10 -5.78547e-10 5.88641e-06 2.85306e-09 3.25549e-08
109 1 0.015 0.0403167 -0.117524 -0.00629207 -1.56255e-09 -3.49257e-09 -1.55034e-09 -6.65482e-06 0 2.16223e-06
3818 2 0.002 0.0381572 -0.109938 -0.00162243 1.96005e-11 5.22344e-10 1.12969e-10 8.80488e-06 7.46193e-09 8.03508e-08
3894 2 0.002 0.0416524 -0.115814 -0.00357961 -8.52284e-11 1.69586e-10 2.80691e-10 4.70782e-05 7.64032e-08 1.21766e-06
3895 2 0.002 0.0416237 -0.111878 -0.00232357 5.45384e-11 3.55376e-10 -2.27583e-10 1.14955e-05 3.35276e-08 1.30173e-07
3971 2 0.002 0.0450887 -0.113872 -0.00240449 6.29444e-11 4.51683e-12 -2.13142e-10 1.08593e-05 2.72338e-08 1.09512e-07
3972 2 0.002 0.0450713 -0.109922 -0.00148834 2.18114e-10 1.15345e-10 -5.97504e-10 7.38594e-06 9.4456e-09 4.89766e-08
3740 2 0.002 0.0347026 -0.111935 -0.00181403 -2.13751e-10 7.58705e-10 -4.54543e-10 8.57093e-06 7.64325e-09 6.47801e-08
3737 2 0.002 0.0346944 -0.123919 -0.0025417 -1.4097e-11 1.85741e-10 -7.62725e-10 1.54635e-05 8.64083e-09 4.82698e-08
3739 2 0.002 0.0346946 -0.115887 -0.00266628 -1.15019e-10 4.5738e-10 4.66287e-10 2.24534e-05 3.40128e-08 1.10965e-07
3816 2 0.002 0.0381543 -0.117839 -0.00375527 -8.5164e-11 3.66689e-10 4.5061e-10 4.66195e-05 7.72306e-08 1.18109e-06
3817 2 0.002 0.0381634 -0.113867 -0.00276739 -3.06696e-11 3.37614e-10 7.30533e-10 2.61425e-05 6.45535e-08 1.27667e-07
3969 2 0.002 0.0450818 -0.121906 -0.00260152 1.57611e-11 -7.35933e-11 -7.45124e-11 1.89211e-05 1.49469e-08 7.31652e-08
3738 2 0.002 0.0346921 -0.119888 -0.00290854 -1.32724e-10 3.64494e-10 -1.67402e-10 2.12401e-05 2.82101e-08 9.71295e-08
3815 2 0.002 0.0381616 -0.121893 -0.00312756 -5.60325e-11 2.55576e-10 -1.32918e-10 2.32974e-05 5.06119e-08 1.04457e-07
3892 2 0.002 0.0416241 -0.123913 -0.0027502 1.13429e-11 1.18915e-10 -7.6302e-11 1.94936e-05 1.48257e-08 8.8376e-08
3893 2 0.002 0.0416498 -0.119881 -0.00350466 -7.50253e-11 1.73356e-10 2.86994e-10 3.34859e-05 6.39362e-08 3.34258e-07
3970 2 0.002 0.0450941 -0.117873 -0.00280139 -5.93215e-11 -6.08376e-11 2.59266e-10 2.28475e-05 5.03292e-08 8.79079e-08
4046 2 0.002 0.0485333 -0.115905 -0.00189631 1.05223e-10 -3.09149e-10 -3.68164e-10 1.50913e-05 8.23719e-09 4.53513e-08
4196 2 0.002 0.055413 -0.119958 -0.000756916 7.53572e-11 -6.42469e-10 1.00757e-10 3.98024e-06 1.87023e-09 1.19265e-08
4045 2 0.002 0.0485259 -0.119913 -0.00202088 -1.7157e-12 -3.09141e-10 1.06088e-10 1.48341e-05 5.88288e-09 4.22708e-08
4047 2 0.002 0.0485294 -0.111925 -0.00138614 1.10089e-10 -3.40519e-10 -9.62579e-11 6.9348e-06 6.14296e-09 5.45164e-08
4044 2 0.002 0.0485163 -0.123932 -0.00181623 4.66292e-11 -2.59278e-10 -2.01904e-11 6.50156e-06 3.76586e-09 3.81698e-08
4120 2 0.002 0.0519644 -0.121942 -0.00132912 9.87231e-11 -4.97553e-10 -1.80079e-10 5.28038e-06 2.43093e-09 2.36064e-08
4121 2 0.002 0.0519705 -0.117934 -0.0013066 -4.84161e-11 -5.81687e-10 5.17572e-10 1.0822e-05 2.54424e-09 2.22965e-08
4122 2 0.002 0.0519745 -0.11394 -0.00100411 1.01399e-10 -5.71192e-10 -1.90564e-10 5.44377e-06 2.77674e-09 3.2856e-08
4195 2 0.002 0.0554098 -0.123966 -0.000710831 1.27895e-10 -5.4098e-10 -5.12974e-13 8.0666e-06 1.29111e-09 1.63034e-08
4197 2 0.002 0.0554164 -0.115957 -0.000574879 1.08981e-10 -6.75683e-10 -2.87124e-10 4.02185e-06 1.998e-09 1.48312e-08
4123 2 0.002 0.051975 -0.109971 -0.000450596 7.99741e-11 -6.36735e-10 3.30359e-10 2.605e-06 2.40041e-09 4.30388e-08
4198 2 0.002 0.0554186 -0.111974 -0.000140386 6.96211e-11 -6.87596e-10 -6.73934e-11 2.90245e-06 1.72763e-09 2.96709e-08
4270 2 0.002 0.0588631 -0.12198 -0.000263711 1.68177e-10 -5.86873e-10 -1.68044e-10 6.22924e-06 1.82319e-09 8.15645e-09
4271 2 0.002 0.058866 -0.117974 -0.000198515 6.99733e-11 -6.5775e-10 1.10714e-10 2.94711e-06 2.50905e-09 6.00898e-09
4629 2 0.002 0.0762045 -0.115982 -9.08795e-06 -3.03378e-10 4.76955e-10 1.71884e-11 4.2794e-06 9.46906e-10 3.01599e-09
4766 2 0.002 0.0831489 -0.112007 -0.000666069 -5.74742e-10 5.46647e-10 4.36417e-10 2.93351e-06 1.08114e-08 2.53637e-08
4833 2 0.002 0.0866076 -0.110012 -0.000755719 -6.3557e-10 4.35484e-10 -5.73558e-10 4.02986e-06 1.34194e-08 1.71188e-08
4832 2 0.002 0.0866426 -0.114051 -0.000988257 -4.22098e-10 3.18591e-10 1.49902e-10 8.0909e-06 2.48647e-08 4.15526e-07
66 1 0.015 0.088532 -0.116097 -0.00198747 -1.428e-09 -6.47563e-10 -2.0486e-10 -2.52701e-06 0 4.04184e-07
4699 2 0.002 0.0796742 -0.109984 -0.00028078 -7.58013e-10 7.44377e-10 -1.35308e-10 6.75807e-06 1.10859e-09 1.15741e-08
4963 2 0.002 0.0935247 -0.109995 -0.000226636 -3.75882e-10 4.72592e-11 3.36256e-10 4.32103e-06 2.65124e-09 3.26916e-09
4897 2 0.002 0.0900873 -0.11602 -0.000498488 -3.0314e-10 2.01602e-10 8.95013e-10 2.23828e-06 2.2705e-08 2.21261e-08
4765 2 0.002 0.0831456 -0.116003 -0.00055152 -4.10231e-10 3.32906e-10 -7.57292e-10 2.87145e-06 1.31597e-08 7.40292e-09
4764 2 0.002 0.0831381 -0.119997 -0.000208335 -1.34432e-10 2.23326e-10 3.68803e-10 2.7501e-06 2.96216e-09 1.21524e-09
4698 2 0.002 0.0796737 -0.113987 -0.000318576 -4.84376e-10 5.74454e-10 -1.59212e-11 5.49269e-06 3.0718e-09 6.05844e-09
4898 2 0.002 0.090078 -0.112012 -0.000552072 -2.6268e-10 2.01954e-10 -1.12558e-09 5.98677e-06 1.86157e-08 6.30689e-09
4831 2 0.002 0.0866109 -0.118014 -0.000406994 -2.26185e-10 7.66404e-11 -6.58615e-10 2.63165e-06 1.84769e-08 1.78078e-09
4697 2 0.002 0.0796717 -0.117989 -0.000205737 -2.31098e-10 3.91054e-10 6.4436e-12 3.91184e-06 1.78079e-09 2.73586e-09
4696 2 0.002 0.0796696 -0.121994 -5.72678e-05 -3.71253e-11 1.86383e-10 -1.37503e-10 2.76301e-06 5.73078e-10 1.17239e-09
878 2 0.002 -0.096944 -0.0959755 -0.00106193 8.16423e-10 -4.59232e-10 -3.34607e-10 1.02324e-05 2.04476e-09 1.93864e-08
754 2 0.002 -0.103886 -0.0959884 -0.000286967 6.89469e-10 -5.38384e-10 -3.40047e-10 6.62914e-06 1.30788e-09 8.74429e-09
753 2 0.002 -0.103895 -0.0999955 -0.000223348 4.16905e-10 -2.86939e-10 1.29221e-10 6.35554e-06 2.32853e-09 1.08802e-08
814 2 0.002 -0.100433 -0.10199 -0.000437445 4.12778e-10 -3.41144e-10 -5.90572e-11 4.13367e-06 2.93334e-09 2.13244e-08
816 2 0.002 -0.100408 -0.0939778 -0.000591852 9.84205e-10 -6.34212e-10 3.2885e-10 4.25988e-06 1.32232e-09 1.32289e-08
876 2 0.002 -0.0969678 -0.103985 -0.000662307 4.25947e-10 -3.10918e-10 1.09333e-10 4.05423e-06 1.744e-09 1.66574e-08
877 2 0.002 -0.0969561 -0.0999829 -0.000945438 6.67682e-10 -4.21525e-10 4.71629e-11 9.62054e-06 1.92224e-09 2.20648e-08
813 2 0.002 -0.100444 -0.105989 -0.000217447 1.32911e-10 -1.28391e-10 -3.12271e-11 0.00674015 2.61483e-09 1.064e-08
875 2 0.002 -0.096982 -0.107989 -0.000319861 1.96644e-10 -1.46179e-10 1.36269e-10 7.05466e-06 3.01237e-09 1.27064e-08
815 2 0.002 -0.100418 -0.0979842 -0.000608179 7.48711e-10 -5.06082e-10 1.70794e-10 4.01331e-06 1.37789e-09 1.38328e-08
694 2 0.002 -0.107363 -0.098 -7.06022e-05 3.52612e-10 -2.73016e-10 2.42382e-10 1.84006e-06 1.18365e-09 4.44857e-09
18 1 0.015 -0.0863845 -0.0954461 -0.00482267 -5.25467e-09 -7.69336e-09 -1.72707e-09 -6.01029e-06 0 1.35829e-06
1072 2 0.002 -0.0865383 -0.0939852 -0.00288476 1.3314e-10 3.56961e-10 -1.73059e-10 4.2009e-05 7.34744e-08 1.08166e-06
1206 2 0.002 -0.0796223 -0.0939943 -0.00140841 -4.92346e-10 6.06389e-10 -1.99753e-10 1.81927e-05 1.57491e-08 6.70789e-08
942 2 0.002 -0.0934742 -0.093969 -0.0015593 6.91075e-10 -1.64043e-10 -5.11821e-10 1.36356e-05 6.87927e-09 3.24572e-08
1069 2 0.002 -0.0865724 -0.105996 -0.000933753 2.86676e-10 -1.97825e-10 3.02862e-10 9.78325e-06 4.00777e-09 2.28406e-08
1204 2 0.002 -0.0796497 -0.101994 -0.00080949 -2.57198e-10 1.92393e-10 1.55818e-10 6.6831e-06 4.0848e-09 3.90945e-08
940 2 0.002 -0.0934933 -0.101986 -0.00119658 5.23678e-10 -3.50534e-10 -1.6475e-10 1.03604e-05 3.04781e-09 2.38403e-08
1004 2 0.002 -0.0900309 -0.103993 -0.00122351 4.38219e-10 -1.92026e-10 6.30125e-10 1.02873e-05 4.27989e-09 2.11001e-08
1136 2 0.002 -0.0831025 -0.104001 -0.001029 5.46453e-11 1.97458e-12 3.50209e-10 6.09402e-06 5.05614e-09 3.33911e-08
1205 2 0.002 -0.0796295 -0.0979944 -0.0012801 -4.30709e-10 3.9429e-10 4.54077e-12 1.79898e-05 1.02331e-08 7.78441e-08
1137 2 0.002 -0.0830754 -0.100005 -0.00171148 -1.25836e-10 2.24559e-10 4.66122e-10 1.81117e-05 2.84495e-08 6.17343e-08
1138 2 0.002 -0.0830529 -0.096001 -0.00233901 -2.07133e-10 4.01165e-10 2.15577e-11 3.18498e-05 5.04745e-08 4.2263e-07
941 2 0.002 -0.0934827 -0.0979802 -0.00151588 6.88138e-10 -2.92927e-10 -2.96364e-11 1.26653e-05 5.36961e-09 3.13587e-08
1005 2 0.002 -0.0900184 -0.0999957 -0.00180391 5.05659e-10 -1.62653e-10 2.68362e-10 1.46163e-05 1.5912e-08 3.89193e-08
1006 2 0.002 -0.0900146 -0.0959816 -0.00217905 5.45036e-10 -1.16087e-11 1.56808e-10 1.87404e-05 4.74618e-08 5.88735e-08
1070 2 0.002 -0.0865508 -0.102003 -0.00163256 2.60739e-10 -1.52384e-10 -1.04036e-10 1.46609e-05 1.14724e-08 4.54873e-08
1071 2 0.002 -0.0865387 -0.0980157 -0.00247094 1.98087e-10 2.63665e-11 -2.47705e-10 2.6175e-05 4.93212e-08 2.38593e-07
939 2 0.002 -0.0935077 -0.105987 -0.000759847 3.62569e-10 -3.17066e-10 -2.37237e-10 2.69192e-06 1.71636e-09 1.57287e-08
1003 2 0.002 -0.0900478 -0.107988 -0.000660424 3.14909e-10 -3.18004e-10 -3.15556e-10 2.40283e-06 2.60194e-09 1.15603e-08
1135 2 0.002 -0.0831311 -0.108004 -0.000406367 2.20197e-10 -1.95803e-10 -1.2553e-10 2.28933e-06 2.10189e-09 2.58985e-08
1203 2 0.002 -0.0796764 -0.105997 -0.000282354 1.90614e-11 -3.82907e-11 -2.59943e-10 5.05843e-06 1.96613e-09 2.33126e-08
1274 2 0.002 -0.0762022 -0.0959914 -0.00053752 -4.77248e-10 3.94428e-10 -1.20902e-09 1.36701e-05 3.37009e-09 3.94231e-08
1273 2 0.002 -0.0762175 -0.0999872 -0.0002885 -5.35332e-10 2.78517e-10 -2.14473e-10 6.55801e-06 2.2485e-09 4.34728e-08
3585 2 0.002 0.0277891 -0.108072 -8.98171e-05 -2.19561e-10 5.18454e-10 1.40267e-10 4.10462e-06 2.413e-09 1.59866e-08
3664 2 0.002 0.0312527 -0.106068 -2.41012e-05 2.37808e-11 4.77706e-10 9.98525e-10 3.04895e-06 2.4706e-09 2.2207e-08
3896 2 0.002 0.0416027 -0.107961 -0.00113488 2.03105e-10 3.61583e-10 -2.40611e-10 1.48853e-05 5.08012e-09 6.64156e-08
3741 2 0.002 0.0347044 -0.108006 -0.000798952 -2.52384e-11 6.77622e-10 5.62538e-11 4.32318e-06 2.29487e-09 4.7429e-08
3819 2 0.002 0.0381478 -0.106023 -0.000460528 2.12231e-10 4.80038e-10 2.46993e-10 3.25262e-06 2.18329e-09 6.33381e-08
3973 2 0.002 0.0450496 -0.105993 -0.000493632 2.96741e-10 -1.90153e-10 7.0501e-10 5.19345e-06 3.72374e-09 2.60905e-08
4048 2 0.002 0.04852 -0.107972 -0.000630462 2.27617e-10 -3.62345e-10 1.22664e-10 2.6178e-06 3.63195e-09 3.07024e-08
4634 2 0.002 0.0761897 -0.0959506 -0.000185079 -4.79944e-10 9.43317e-10 1.40213e-10 3.08215e-06 1.07445e-09 2.3098e-08
4702 2 0.002 0.0796514 -0.0979434 -0.000436595 -6.11668e-10 9.16125e-10 1.35362e-11 7.69177e-06 1.84241e-09 1.16732e-08
4769 2 0.002 0.0831182 -0.099948 -0.000588278 -7.12269e-10 7.48127e-10 -3.1139e-12 6.49485e-06 2.34632e-09 7.28713e-09
4836 2 0.002 0.0865866 -0.0979392 -0.000757282 -4.72563e-10 4.52824e-10 -2.04165e-10 6.63386e-06 2.14841e-09 7.65006e-09
4902 2 0.002 0.0900572 -0.0959334 -0.000714664 -2.17492e-10 1.60915e-10 4.30738e-10 6.90227e-06 1.44596e-09 7.86237e-09
4770 2 0.002 0.0831153 -0.0959304 -0.000842168 -3.4818e-10 6.61895e-10 -5.24998e-12 8.1844e-06 3.42795e-09 1.33057e-08
4837 2 0.002 0.0865888 -0.0939217 -0.00102124 -3.96442e-11 4.04069e-10 2.72127e-10 8.52802e-06 3.77628e-09 1.20307e-08
4703 2 0.002 0.079647 -0.0939359 -0.00079542 -2.07088e-10 8.06652e-10 2.34298e-10 4.92035e-06 3.09659e-09 2.3781e-08
4768 2 0.002 0.0831236 -0.103968 -0.000500336 -8.7557e-10 7.45178e-10 1.39588e-10 5.9869e-06 2.05291e-09 6.22486e-09
4701 2 0.002 0.0796579 -0.101957 -0.000246571 -8.6225e-10 9.3299e-10 -1.33906e-10 6.6257e-06 1.52055e-09 6.69425e-09