ITEM: TIMESTEP
200000
ITEM: NUMBER OF ATOMS
5843
ITEM: BOX BOUNDS ff ff ff
-2.5000000000000000e-01 2.5000000000000000e-01
-2.5000000000000000e-01 2.5000000000000000e-01
-1.0000000000000001e-01 1.0000000000000001e-01
ITEM: ATOMS id type radius x y z fx fy fz v_pressure c_bendingE c_stretchingE
2545 2 0.002 -0.0173246 -0.141976 -0.000266752 -3.23252e-09 -3.49241e-09 -1.14934e-08 3.05276e-06 2.58373e-09 9.37691e-09
2465 2 0.002 -0.0207817 -0.143989 -1.19824e-05 -2.26798e-09 -1.23745e-09 -1.06063e-08 3.13137e-06 2.34579e-09 1.74202e-09
2703 2 0.002 -0.0103959 -0.145981 -0.000198883 2.14247e-10 -6.02517e-10 2.04793e-09 6.54912e-06 2.24812e-09 1.05927e-08
2862 2 0.002 -0.00347462 -0.145981 -0.000198547 1.43315e-09 1.59187e-09 -2.91851e-09 3.28778e-06 2.51176e-09 1.07947e-08
2863 2 0.002 -0.00349053 -0.141967 -0.000597577 -4.56514e-10 5.43888e-09 1.92493e-08 2.65082e-06 1.21854e-09 1.69812e-08
2783 2 0.002 -0.00694343 -0.143975 -0.000416423 6.68237e-10 -5.41728e-10 -4.47263e-09 2.70227e-06 2.54868e-09 2.00505e-08
2704 2 0.002 -0.0104109 -0.141964 -0.00060966 -5.20331e-10 -1.86521e-09 5.38204e-09 7.82896e-06 1.34038e-09 1.64145e-08
2624 2 0.002 -0.0138629 -0.143978 -0.000284405 -1.21468e-09 -2.87626e-09 -1.30428e-08 3.42721e-06 2.53648e-09 1.19838e-08
2942 2 0.002 -1.92482e-05 -0.143977 -0.00024709 2.53294e-09 3.2044e-09 -2.19826e-08 2.31919e-06 2.77713e-09 1.23489e-08
3022 2 0.002 0.00344456 -0.141981 -0.000133548 -1.66109e-09 1.2343e-08 1.57237e-08 3.15163e-06 3.3552e-09 3.64605e-08
3655 2 0.002 0.03119 -0.14198 -0.000252227 3.66778e-10 1.03044e-08 3.35004e-09 6.24272e-06 1.97684e-09 8.66805e-09
3340 2 0.002 0.0173055 -0.141992 -0.000100194 -2.86013e-09 1.38054e-08 -7.27517e-09 6.0729e-06 1.19226e-09 6.66668e-09
3498 2 0.002 0.0242553 -0.141984 -0.00025615 -2.33286e-09 1.30901e-08 -1.40004e-09 2.78433e-06 9.40561e-10 6.10393e-09
3419 2 0.002 0.0207846 -0.143987 -9.50446e-05 -1.42091e-09 9.54745e-09 3.34788e-09 4.21364e-06 8.06051e-10 2.78377e-09
3576 2 0.002 0.0277183 -0.143985 -0.000138443 -9.64188e-10 8.86096e-09 7.00906e-09 4.97996e-06 1.13549e-09 4.99051e-09
63 1 0.015 -0.0572089 -0.134807 -0.0010905 -9.51156e-08 -6.15128e-08 -2.95613e-08 -1.94832e-06 0 4.20577e-07
1622 2 0.002 -0.0588966 -0.133986 -8.41658e-05 -2.32667e-09 5.53894e-11 2.26396e-08 1.92379e-06 6.30917e-09 1.18131e-08
1697 2 0.002 -0.0554458 -0.131989 -9.91592e-05 -3.82067e-09 -5.02469e-11 9.12001e-09 7.49739e-06 1.11454e-08 4.42169e-07
1696 2 0.002 -0.0554255 -0.135992 -6.52903e-05 1.71241e-10 7.14265e-10 -8.59085e-09 2.68264e-06 6.30965e-09 1.28817e-09
2547 2 0.002 -0.0173606 -0.133942 -0.000845276 -4.66018e-09 -7.97903e-09 -7.12221e-09 9.5362e-06 2.10074e-09 1.74778e-08
2468 2 0.002 -0.0208091 -0.131951 -0.000384284 -1.08461e-09 -4.14129e-09 -2.91194e-09 4.44246e-06 1.76946e-09 1.55501e-08
2548 2 0.002 -0.0173765 -0.129924 -0.00103992 -3.6961e-10 -8.12425e-09 4.77915e-09 1.1748e-05 4.11055e-09 2.58424e-08
2549 2 0.002 -0.0173882 -0.125912 -0.00102536 3.73395e-09 -8.08861e-09 2.70842e-10 1.29561e-05 5.92417e-09 3.04266e-08
2546 2 0.002 -0.0173424 -0.137959 -0.000565341 -4.03188e-09 -5.06411e-09 5.35603e-09 3.81873e-06 1.19432e-09 1.16973e-08
2467 2 0.002 -0.0208017 -0.135967 -0.000263225 -3.55491e-09 -3.538e-09 2.75625e-09 3.80933e-06 1.11816e-09 1.34094e-08
2469 2 0.002 -0.0208154 -0.127939 -0.000373671 3.281e-09 -3.12928e-09 -8.63157e-09 9.86388e-06 1.71916e-09 1.70452e-08
2466 2 0.002 -0.0207921 -0.139979 -0.00010432 -3.50944e-09 -2.27285e-09 9.6678e-09 5.82378e-06 9.85329e-10 7.69708e-09
85 1 0.015 -0.00911121 -0.126133 -0.00488693 -4.07221e-07 2.15185e-07 1.16084e-07 -5.78218e-06 0 1.21636e-06
2708 2 0.002 -0.0105468 -0.12587 -0.00277537 -6.78777e-09 -6.14774e-09 -5.09222e-10 3.50157e-05 5.95127e-08 6.45751e-07
2867 2 0.002 -0.00356407 -0.125908 -0.00220707 -1.58444e-08 5.48985e-09 9.00229e-09 1.90054e-05 3.40418e-08 5.915e-08
2627 2 0.002 -0.0139277 -0.131923 -0.00151188 -3.58267e-09 -8.01549e-09 8.42954e-09 1.2849e-05 6.02091e-09 2.89204e-08
2628 2 0.002 -0.0139568 -0.127898 -0.00183172 -2.83607e-09 -9.91161e-09 8.91396e-10 1.75059e-05 2.54916e-08 5.64391e-08
2706 2 0.002 -0.0104594 -0.133932 -0.00164832 -4.33138e-09 -2.62266e-09 2.22651e-08 1.30565e-05 5.35345e-09 3.64504e-08
2707 2 0.002 -0.0104988 -0.12991 -0.00224141 -6.45237e-09 -5.57178e-09 3.79946e-09 1.88651e-05 4.34505e-08 6.17294e-08
2786 2 0.002 -0.00701184 -0.131929 -0.002103 -9.11047e-09 1.36539e-09 9.5182e-09 8.49318e-06 1.83317e-08 6.75655e-08
2787 2 0.002 -0.0070458 -0.127903 -0.00280104 -1.11965e-08 -6.84732e-10 -1.30867e-08 3.13379e-05 5.00482e-08 4.68303e-07
2866 2 0.002 -0.00355492 -0.129929 -0.00211571 -1.34977e-08 6.64477e-09 -2.99649e-09 8.60396e-06 1.50503e-08 7.20779e-08
2946 2 0.002 -8.58966e-05 -0.12794 -0.00172209 -1.48107e-08 1.52042e-08 -2.01112e-08 1.24967e-05 5.71863e-09 3.08399e-08
2784 2 0.002 -0.00696107 -0.139959 -0.000910975 -1.75155e-09 -8.72356e-10 -4.81975e-09 4.63941e-06 1.34633e-09 2.44971e-08
2625 2 0.002 -0.0138769 -0.139959 -0.000671719 -1.42171e-09 -2.3972e-09 2.11829e-08 7.75488e-06 1.42271e-09 1.45015e-08
2705 2 0.002 -0.0104313 -0.137949 -0.0011023 -4.31722e-09 -6.24569e-09 -1.60619e-08 9.73294e-06 1.95357e-09 2.37992e-08
2785 2 0.002 -0.00698343 -0.135945 -0.00146812 -5.44559e-09 -1.39756e-09 -4.1898e-09 5.96561e-06 3.20005e-09 3.81413e-08
2864 2 0.002 -0.00350795 -0.137958 -0.00109409 -3.5151e-09 3.26125e-09 -9.93581e-09 2.52489e-06 1.34032e-09 2.91382e-08
2626 2 0.002 -0.0138997 -0.135942 -0.00109427 -6.30801e-09 -9.17921e-09 -1.79171e-08 9.81916e-06 1.94779e-09 1.94326e-08
2865 2 0.002 -0.00353088 -0.133948 -0.00163311 -9.96834e-09 6.96265e-09 8.41455e-09 4.23152e-06 4.61513e-09 4.31738e-08
2945 2 0.002 -7.59641e-05 -0.131953 -0.00152331 -1.49592e-08 1.54372e-08 7.07851e-09 5.88263e-06 3.46955e-09 3.91756e-08
2944 2 0.002 -5.50859e-05 -0.135963 -0.00110253 -6.68479e-09 1.00935e-08 -1.79503e-08 2.56515e-06 1.19222e-09 3.34481e-08
2943 2 0.002 -3.24896e-05 -0.139969 -0.000636907 -2.02455e-09 9.23089e-09 1.66783e-09 3.04299e-06 8.63909e-10 2.64029e-08
3023 2 0.002 0.0034193 -0.137976 -0.000567095 -5.89402e-09 1.64713e-08 2.76144e-11 3.06524e-06 1.79237e-09 2.94861e-08
3103 2 0.002 0.00687816 -0.135989 -0.000556284 -1.02715e-08 2.32953e-08 -1.30807e-08 4.24069e-06 1.53755e-09 1.97564e-08
3104 2 0.002 0.00687079 -0.131985 -0.000915363 -1.77276e-08 2.83376e-08 -4.78593e-10 3.70915e-06 2.19141e-09 1.27081e-08
3024 2 0.002 0.00340129 -0.133973 -0.00100526 -1.32054e-08 2.07921e-08 -2.53397e-09 2.30029e-06 1.64723e-09 2.60606e-08
3184 2 0.002 0.0103504 -0.129992 -0.000869482 -2.04824e-08 3.31371e-08 -1.20195e-08 0.00586194 2.45056e-09 6.28351e-09
3263 2 0.002 0.0138308 -0.131996 -0.000753019 -1.73795e-08 3.29173e-08 -3.47221e-09 5.71186e-06 1.45032e-09 5.71264e-09
3183 2 0.002 0.0103501 -0.133995 -0.000630404 -1.5084e-08 3.13608e-08 7.96044e-09 6.82125e-06 1.57972e-09 8.48457e-09
3025 2 0.002 0.00339191 -0.129966 -0.00128442 -1.78744e-08 2.33389e-08 -7.06809e-09 9.0396e-06 2.88043e-09 1.91784e-08
3026 2 0.002 0.00339129 -0.125958 -0.00127874 -1.92015e-08 2.46258e-08 -7.14731e-09 9.05128e-06 3.16612e-09 1.50679e-08
3105 2 0.002 0.00687013 -0.127978 -0.00104594 -2.22093e-08 2.97928e-08 6.64902e-09 6.81702e-06 2.99419e-09 8.96883e-09
3264 2 0.002 0.0138353 -0.127993 -0.000875184 -2.07882e-08 3.27148e-08 4.70614e-09 0.00504714 2.65433e-09 5.114e-09
3185 2 0.002 0.0103552 -0.125988 -0.000853236 -2.2323e-08 3.33396e-08 -1.29208e-08 5.42512e-06 3.31252e-09 5.74493e-09
3102 2 0.002 0.00689243 -0.139994 -6.33997e-05 -3.55192e-09 1.9465e-08 8.94926e-09 5.22018e-06 1.16318e-08 3.46551e-08
3182 2 0.002 0.0103546 -0.137997 -0.000225298 -7.43111e-09 2.22448e-08 -2.36718e-08 8.21106e-06 2.02205e-09 1.38543e-08
3262 2 0.002 0.013829 -0.135995 -0.000450317 -1.10121e-08 3.00466e-08 1.13555e-08 6.49547e-06 8.58413e-10 6.82107e-09
3261 2 0.002 0.0138308 -0.139994 -7.3712e-05 -5.07666e-09 1.87378e-08 -2.13044e-08 7.10133e-06 4.04309e-09 8.27799e-09
3501 2 0.002 0.0242741 -0.129977 -0.00123487 -5.13634e-09 2.65119e-08 6.85344e-09 0.00686311 1.28309e-09 1.06705e-08
3579 2 0.002 0.0277466 -0.131969 -0.0012502 2.5977e-10 2.43238e-08 -9.46285e-09 7.72077e-06 8.56497e-10 1.26011e-08
3423 2 0.002 0.0207983 -0.127985 -0.00112218 -1.19946e-08 2.71927e-08 5.38777e-09 0.00583793 1.93291e-09 8.10288e-09
3421 2 0.002 0.0207869 -0.135985 -0.000651559 -8.0014e-09 2.68206e-08 -5.44379e-09 6.09394e-06 2.94306e-10 7.51584e-09
3499 2 0.002 0.0242607 -0.13798 -0.000587448 -3.75758e-09 2.24655e-08 1.98665e-10 6.23349e-06 2.33973e-10 7.30437e-09
3577 2 0.002 0.0277292 -0.139976 -0.000456737 -1.04657e-09 1.67494e-08 -6.31415e-09 6.07597e-06 6.11331e-10 7.0218e-09
3343 2 0.002 0.0173148 -0.129993 -0.000913705 -1.64161e-08 3.17556e-08 4.62137e-10 0.00541909 1.59602e-09 6.30757e-09
3344 2 0.002 0.0173211 -0.125991 -0.000941262 -1.78329e-08 2.8223e-08 -2.50945e-09 2.50454e-06 2.83926e-09 5.89428e-09
3422 2 0.002 0.0207927 -0.131987 -0.000944246 -1.06953e-08 2.95885e-08 -1.3371e-09 0.00606935 8.20715e-10 8.15503e-09
3500 2 0.002 0.0242678 -0.133979 -0.000935989 -5.10541e-09 2.65001e-08 -4.88202e-09 0.0066631 4.76814e-10 9.21227e-09
3578 2 0.002 0.0277387 -0.135972 -0.000852173 -3.34539e-10 2.37073e-08 1.64461e-09 7.02929e-06 4.70541e-10 9.6228e-09
3502 2 0.002 0.0242791 -0.125972 -0.001399 -6.3972e-09 1.98144e-08 -1.36978e-08 0.007047 2.5007e-09 1.18122e-08
3580 2 0.002 0.0277524 -0.127962 -0.00158405 1.84798e-09 2.21341e-08 3.29094e-09 8.39699e-06 2.03008e-09 1.56979e-08
3342 2 0.002 0.01731 -0.133992 -0.000688827 -1.28859e-08 3.02272e-08 -8.94678e-09 5.9213e-06 6.26558e-10 6.86301e-09
3656 2 0.002 0.0312035 -0.13797 -0.000668336 2.33142e-09 1.80806e-08 -2.22318e-09 7.4388e-06 7.04745e-10 1.15154e-08
3657 2 0.002 0.0312134 -0.133964 -0.00114268 4.70928e-09 2.26416e-08 -4.6591e-09 8.38868e-06 6.08184e-10 1.52245e-08
3658 2 0.002 0.0312214 -0.129956 -0.00161136 7.43023e-09 2.34359e-08 2.68854e-10 3.17482e-06 1.28466e-09 1.98878e-08
3341 2 0.002 0.0173065 -0.13799 -0.000375002 -7.13735e-09 2.58397e-08 1.15603e-08 6.16899e-06 6.51401e-10 7.02106e-09
3420 2 0.002 0.0207826 -0.139984 -0.000339945 -4.35781e-09 2.02476e-08 4.43213e-09 5.69693e-06 4.3747e-10 5.83851e-09
3659 2 0.002 0.031226 -0.125942 -0.00201486 8.35532e-09 1.81113e-08 -9.37074e-09 5.52025e-06 3.41335e-09 2.61736e-08
3734 2 0.002 0.0346723 -0.135965 -0.000902343 6.32209e-09 1.94267e-08 3.74621e-09 9.03758e-06 6.8188e-10 2.14909e-08
3889 2 0.002 0.0415836 -0.135966 -0.000794512 7.68176e-09 1.40468e-08 -1.29378e-08 4.86837e-06 1.31446e-09 2.68194e-08
3966 2 0.002 0.0450436 -0.133966 -0.000930336 8.80243e-09 1.76611e-08 -2.58555e-09 3.37654e-06 9.3606e-10 2.99849e-08
3733 2 0.002 0.03466 -0.139976 -0.000371849 2.69944e-09 1.02167e-08 -3.80773e-09 8.35668e-06 3.77661e-09 1.78878e-08
3811 2 0.002 0.0381216 -0.137974 -0.000561664 4.86708e-09 1.26e-08 3.10931e-09 1.01855e-05 3.92861e-09 3.47475e-08
3888 2 0.002 0.0415709 -0.139979 -0.000263359 1.66998e-09 8.02595e-09 8.51079e-09 8.45552e-06 3.61972e-09 1.71935e-08
3965 2 0.002 0.0450369 -0.137979 -0.000389201 3.38416e-09 9.62229e-09 5.29836e-09 4.59915e-06 4.08106e-09 2.18473e-08
3891 2 0.002 0.0416078 -0.127936 -0.00205543 1.64122e-08 2.81873e-08 8.06058e-13 7.07408e-06 3.12347e-09 5.52175e-08
3736 2 0.002 0.0346909 -0.12794 -0.00202433 1.3163e-08 2.20911e-08 -7.54386e-09 6.12705e-06 2.09748e-09 3.47058e-08
3813 2 0.002 0.0381467 -0.129945 -0.00180117 1.46138e-08 2.51721e-08 1.25023e-09 6.24622e-06 1.69382e-09 4.35628e-08
3890 2 0.002 0.0415954 -0.131954 -0.00140756 1.26651e-08 2.36489e-08 1.51057e-09 3.80097e-06 1.17986e-09 3.83974e-08
3967 2 0.002 0.0450524 -0.129951 -0.00151103 1.31389e-08 2.56655e-08 -2.38167e-09 2.8874e-06 1.4467e-09 3.74112e-08
3735 2 0.002 0.0346828 -0.131955 -0.00146674 1.02475e-08 2.19873e-08 -8.80496e-09 3.42769e-06 8.05054e-10 2.66582e-08
3812 2 0.002 0.0381352 -0.13396 -0.00117346 1.0198e-08 1.94388e-08 -6.8966e-09 1.06485e-05 6.14658e-10 3.43264e-08
3968 2 0.002 0.045066 -0.125933 -0.00208877 1.53473e-08 3.07478e-08 -4.59965e-09 4.74385e-06 4.28599e-09 4.80301e-08
3814 2 0.002 0.0381565 -0.125923 -0.00245045 1.72811e-08 2.32761e-08 -1.35926e-08 1.60708e-05 5.47121e-09 6.3178e-08
4042 2 0.002 0.0484972 -0.131966 -0.000938355 7.76127e-09 1.93685e-08 -1.20473e-09 2.3783e-06 1.41847e-09 2.62961e-08
4041 2 0.002 0.0484961 -0.135981 -0.000428918 4.02598e-09 9.92445e-09 1.14391e-09 2.3872e-06 4.6109e-09 2.6229e-08
4043 2 0.002 0.0485062 -0.127951 -0.00142039 1.13999e-08 2.6634e-08 -9.44692e-09 2.7131e-06 1.75777e-09 2.95605e-08
4119 2 0.002 0.0519587 -0.125954 -0.00113365 5.1372e-09 2.7799e-08 3.69271e-09 3.23774e-06 1.66112e-09 2.29889e-08
4118 2 0.002 0.0519518 -0.129966 -0.000811211 4.05784e-09 2.0634e-08 5.6788e-09 4.19468e-06 1.41532e-09 1.7468e-08
4194 2 0.002 0.0554088 -0.127972 -0.000522589 3.0539e-09 1.79014e-08 -1.88472e-08 7.66358e-06 9.74953e-10 1.68588e-08
4117 2 0.002 0.051948 -0.13398 -0.000423 2.53316e-09 1.05148e-08 -2.44551e-09 2.58754e-06 3.74445e-09 1.77313e-08
4192 2 0.002 0.0554153 -0.135987 -0.00011649 -6.60588e-10 4.71502e-09 -4.12252e-09 2.25369e-06 3.32443e-09 4.64486e-09
4193 2 0.002 0.0554075 -0.131976 -0.000300954 -3.63256e-10 1.20403e-08 1.88891e-09 2.94941e-06 2.62169e-09 8.2929e-09
4269 2 0.002 0.0588624 -0.125986 -0.000144022 -1.90178e-09 1.46939e-08 -9.68934e-09 6.9104e-06 1.89729e-09 1.48997e-08
938 2 0.002 -0.0935228 -0.109989 -0.000321414 -1.18081e-08 1.15828e-08 -4.30595e-09 1.59162e-06 3.40045e-09 1.07914e-08
1068 2 0.002 -0.0865942 -0.109994 -0.000341368 -2.23799e-08 2.8684e-08 -1.08261e-08 2.21797e-06 2.58022e-09 1.36557e-08
1002 2 0.002 -0.0900636 -0.111987 -0.000199222 -1.5302e-08 1.9141e-08 9.27142e-10 2.1163e-06 3.27756e-09 4.83068e-09
2470 2 0.002 -0.0208148 -0.123936 -0.000169444 9.40103e-09 -2.2441e-09 -6.11075e-09 5.36048e-06 1.33707e-09 2.35783e-08
2550 2 0.002 -0.0173774 -0.121915 -0.000693924 5.12589e-09 -6.43522e-09 -1.89877e-08 1.30997e-05 3.64423e-09 3.77936e-08
2551 2 0.002 -0.017359 -0.117926 -0.000167799 1.27265e-08 -9.89406e-09 -1.38913e-09 1.13189e-05 2.04636e-09 2.54426e-08
2630 2 0.002 -0.0139307 -0.119897 -0.00103863 1.03495e-08 -1.4104e-08 1.83676e-08 1.44307e-05 6.33475e-09 4.19887e-08
2788 2 0.002 -0.00704632 -0.123864 -0.00259117 -7.77045e-09 -5.26297e-10 -4.67531e-09 3.16045e-05 4.83362e-08 4.54043e-07
2789 2 0.002 -0.00701364 -0.119894 -0.00161059 -2.06224e-09 -4.64338e-09 8.81192e-09 1.789e-05 1.53886e-08 6.87928e-08
2868 2 0.002 -0.00355615 -0.121908 -0.0017607 -1.26121e-08 8.92914e-10 3.0183e-08 1.76059e-05 1.29339e-08 6.47595e-08
2710 2 0.002 -0.0104627 -0.117899 -0.00103592 4.88588e-09 -6.42575e-09 -1.61672e-08 1.46517e-05 5.3416e-09 4.83423e-08
2629 2 0.002 -0.0139588 -0.123887 -0.00167821 5.11558e-09 -1.14493e-08 1.46855e-08 1.852e-05 2.39881e-08 7.38112e-08
2709 2 0.002 -0.0105011 -0.121873 -0.0019241 -9.08319e-10 -5.58396e-09 -1.0228e-08 2.03537e-05 4.11399e-08 7.93943e-08
2947 2 0.002 -8.48783e-05 -0.123934 -0.0015469 -1.82934e-08 1.29243e-08 2.05157e-08 1.28286e-05 5.02012e-09 3.09096e-08
2869 2 0.002 -0.00352947 -0.117936 -0.000993874 -2.10107e-09 1.70638e-09 1.23982e-08 1.33729e-05 3.80328e-09 3.52194e-08
2948 2 0.002 -7.037e-05 -0.119953 -0.0010228 -8.56802e-09 1.52103e-08 -5.61701e-09 1.24441e-05 2.74393e-09 3.581e-08
2790 2 0.002 -0.00698513 -0.115926 -0.000713045 5.56368e-09 -9.09252e-09 1.5876e-08 1.30549e-05 3.29021e-09 3.84354e-08
2631 2 0.002 -0.0139005 -0.115914 -0.000316117 1.19326e-08 -1.4268e-08 3.17659e-09 1.18641e-05 2.1448e-09 3.09729e-08
2711 2 0.002 -0.0104331 -0.113922 -0.000208862 1.04402e-08 -1.19134e-08 -9.73135e-09 5.93361e-06 2.06456e-09 3.64345e-08
2870 2 0.002 -0.00350442 -0.113968 -0.000218281 7.10889e-09 1.8051e-09 -7.27044e-09 1.08056e-05 1.67609e-09 2.10188e-08
2949 2 0.002 -4.42533e-05 -0.115987 -0.00033223 2.19493e-09 1.72978e-08 -3.01999e-08 5.49767e-06 1.22012e-09 2.55689e-08
3107 2 0.002 0.00688945 -0.120004 -0.000381313 -1.66732e-08 2.45226e-08 1.78039e-08 7.9974e-06 2.05045e-09 1.5759e-08
3266 2 0.002 0.0138601 -0.120023 -0.000246163 -1.60506e-08 2.36672e-08 7.59374e-10 5.96511e-06 4.41601e-09 6.85692e-09
3186 2 0.002 0.010366 -0.122 -0.00051804 -1.95294e-08 3.17576e-08 -2.02848e-08 5.92669e-06 3.37791e-09 7.39023e-09
3027 2 0.002 0.00339953 -0.121966 -0.000940194 -1.30129e-08 2.70953e-08 -3.49669e-08 4.78715e-06 2.41183e-09 2.03454e-08
3106 2 0.002 0.00687587 -0.123978 -0.000871109 -2.27519e-08 2.70913e-08 2.70938e-08 3.47452e-06 2.96831e-09 9.59943e-09
3265 2 0.002 0.0138437 -0.123995 -0.000724448 -2.00556e-08 2.73623e-08 2.76016e-08 4.92945e-06 3.70701e-09 5.18698e-09
3028 2 0.002 0.00341848 -0.118001 -0.000341648 -1.05751e-08 1.69288e-08 2.12101e-08 5.08603e-06 1.34507e-09 2.70715e-08
3583 2 0.002 0.0277685 -0.115972 -0.00134991 2.43822e-09 -7.32267e-09 -5.1155e-09 2.75248e-06 2.41707e-09 3.37173e-08
3584 2 0.002 0.0277812 -0.11202 -0.000767728 -3.71709e-09 -1.27062e-08 -4.01973e-08 3.48665e-06 1.83816e-09 3.2057e-08
3345 2 0.002 0.0173326 -0.122001 -0.000684465 -1.57813e-08 2.06072e-08 2.71208e-09 1.74302e-06 3.28977e-09 6.71728e-09
3424 2 0.002 0.0208051 -0.123984 -0.00108715 -1.12342e-08 2.0307e-08 2.95593e-09 2.89154e-06 2.78886e-09 8.41859e-09
3426 2 0.002 0.0208397 -0.116047 -0.000215027 -6.09841e-09 1.24204e-10 -4.64509e-09 2.65847e-06 2.21836e-09 2.35907e-08
3503 2 0.002 0.0242849 -0.12197 -0.00133909 -5.56369e-11 9.04948e-09 3.58825e-08 3.73672e-06 3.00255e-09 1.41661e-08
3504 2 0.002 0.0242965 -0.11799 -0.00101182 1.96445e-10 -1.66207e-09 1.52187e-08 2.10947e-06 2.15705e-09 2.23151e-08
3505 2 0.002 0.0243134 -0.114037 -0.000481943 3.52228e-09 -1.46379e-08 2.00613e-08 3.0403e-06 1.15335e-09 3.04408e-08
3581 2 0.002 0.0277559 -0.123952 -0.00176922 2.95272e-09 1.44294e-08 1.64219e-09 9.29482e-06 3.77204e-09 1.99387e-08
3582 2 0.002 0.0277587 -0.119949 -0.00170844 -5.79803e-10 4.99629e-09 -2.30656e-08 5.11121e-06 3.77934e-09 2.49967e-08
3425 2 0.002 0.0208182 -0.12 -0.000773771 -1.12055e-08 1.25725e-08 -1.76136e-08 2.14841e-06 2.54349e-09 1.22968e-08
3346 2 0.002 0.0173547 -0.118044 -0.000116077 -8.49271e-09 7.58202e-09 2.74218e-08 2.21776e-06 3.75052e-09 1.14663e-08
3660 2 0.002 0.0312276 -0.121925 -0.00225875 9.56843e-09 1.07618e-08 3.07478e-09 1.32723e-05 7.10283e-09 3.94237e-08
3661 2 0.002 0.0312266 -0.11792 -0.00217992 1.13864e-08 -6.35854e-10 1.70994e-08 1.4519e-05 8.98855e-09 4.41238e-08
3662 2 0.002 0.0312384 -0.113951 -0.0016783 6.52362e-09 -1.05255e-08 2.98552e-09 1.453e-05 4.91065e-09 5.30423e-08
3663 2 0.002 0.0312465 -0.110005 -0.000909549 2.7189e-09 -2.10552e-08 2.79587e-09 5.88674e-06 2.85288e-09 3.25577e-08
109 1 0.015 0.0403166 -0.117523 -0.00629177 1.73938e-08 6.27316e-08 7.43047e-08 -6.65477e-06 0 2.16225e-06
3818 2 0.002 0.0381572 -0.109938 -0.001622 1.86816e-09 -2.14413e-09 5.93739e-09 8.80528e-06 7.46204e-09 8.03573e-08
3894 2 0.002 0.0416523 -0.115814 -0.00357927 1.13771e-08 2.46564e-08 -1.14008e-08 4.70786e-05 7.64023e-08 1.21766e-06
3895 2 0.002 0.0416237 -0.111878 -0.00232318 3.66375e-09 1.21107e-08 1.19212e-08 1.14958e-05 3.35269e-08 1.30178e-07
3971 2 0.002 0.0450887 -0.113872 -0.00240415 4.2717e-09 2.67909e-08 8.61462e-09 1.08596e-05 2.72335e-08 1.09514e-07
3972 2 0.002 0.0450713 -0.109922 -0.00148796 -4.47937e-09 1.279e-08 3.71309e-08 7.38634e-06 9.44568e-09 4.898e-08
3740 2 0.002 0.0347026 -0.111935 -0.00181362 6.75741e-09 -9.19552e-09 1.07052e-08 8.5713e-06 7.6434e-09 6.47851e-08
3737 2 0.002 0.0346944 -0.123919 -0.00254146 1.64281e-08 2.02105e-08 1.4781e-08 1.54636e-05 8.64074e-09 4.82703e-08
3739 2 0.002 0.0346946 -0.115887 -0.00266593 1.53931e-08 -1.16054e-09 2.62734e-08 2.2454e-05 3.40124e-08 1.10968e-07
3816 2 0.002 0.0381543 -0.117839 -0.00375495 1.24423e-08 1.6751e-08 -5.3186e-09 4.66199e-05 7.72299e-08 1.18111e-06
3817 2 0.002 0.0381634 -0.113867 -0.00276702 8.87034e-09 8.86967e-09 -3.06976e-09 2.61431e-05 6.4553e-08 1.27674e-07
3969 2 0.002 0.0450818 -0.121906 -0.00260129 1.17757e-08 3.47738e-08 1.27505e-08 1.89214e-05 1.4947e-08 7.3167e-08
3738 2 0.002 0.0346921 -0.119888 -0.00290823 1.5072e-08 1.11153e-08 8.56375e-09 2.12405e-05 2.82101e-08 9.71288e-08
3815 2 0.002 0.0381615 -0.121893 -0.00312729 1.67852e-08 2.15334e-08 -7.79566e-09 2.32976e-05 5.06118e-08 1.04459e-07
3892 2 0.002 0.0416241 -0.123913 -0.00274997 1.74581e-08 2.84239e-08 -7.80183e-09 1.94937e-05 1.48258e-08 8.83775e-08
3893 2 0.002 0.0416498 -0.119881 -0.00350439 1.52545e-08 2.79633e-08 -2.55587e-09 3.34863e-05 6.39354e-08 3.34266e-07
3970 2 0.002 0.0450941 -0.117873 -0.00280111 8.03984e-09 3.2611e-08 1.06529e-08 2.2848e-05 5.03287e-08 8.79104e-08
4046 2 0.002 0.0485333 -0.115905 -0.00189602 -2.95119e-09 3.0301e-08 4.13707e-08 1.50918e-05 8.2372e-09 4.53538e-08
4196 2 0.002 0.055413 -0.119958 -0.000756707 -1.46791e-09 2.59647e-08 1.31378e-08 3.98039e-06 1.87036e-09 1.1927e-08
4045 2 0.002 0.0485259 -0.119913 -0.00202063 1.14831e-08 3.46217e-08 -1.03572e-08 1.48345e-05 5.88318e-09 4.22721e-08
4047 2 0.002 0.0485294 -0.111925 -0.00138579 1.01052e-10 2.91629e-08 6.34048e-09 6.93513e-06 6.14337e-09 5.45192e-08
4044 2 0.002 0.0485163 -0.123932 -0.00181604 1.08395e-08 3.32458e-08 3.46828e-10 6.5016e-06 3.76565e-09 3.81699e-08
4120 2 0.002 0.0519644 -0.121942 -0.00132892 5.59432e-09 3.22453e-08 1.59746e-09 5.28046e-06 2.43085e-09 2.36068e-08
4121 2 0.002 0.0519705 -0.117934 -0.00130633 9.29805e-09 3.40325e-08 -2.85776e-08 1.08223e-05 2.54418e-09 2.22979e-08
4122 2 0.002 0.0519745 -0.11394 -0.00100379 2.13446e-09 3.15472e-08 -1.05642e-08 5.44401e-06 2.77655e-09 3.28587e-08
4195 2 0.002 0.0554098 -0.123966 -0.000710675 -2.47616e-10 2.41249e-08 8.05808e-09 8.06668e-06 1.29118e-09 1.6303e-08
4197 2 0.002 0.0554164 -0.115957 -0.000574619 -5.30631e-09 2.40084e-08 2.27186e-08 4.02207e-06 1.99799e-09 1.48331e-08
4123 2 0.002 0.051975 -0.109971 -0.000450238 -6.32527e-09 2.46632e-08 9.34619e-09 2.60515e-06 2.40029e-09 4.30422e-08
4198 2 0.002 0.0554187 -0.111974 -0.000140066 -4.43397e-09 2.29182e-08 -4.11971e-09 2.90263e-06 1.7277e-09 2.96744e-08
4270 2 0.002 0.0588631 -0.12198 -0.000263538 -1.38724e-09 1.70093e-08 -1.16831e-08 6.22934e-06 1.82317e-09 8.15615e-09
4271 2 0.002 0.058866 -0.117974 -0.00019829 -2.83732e-09 1.70671e-08 -7.40416e-09 2.94724e-06 2.50901e-09 6.00973e-09
4629 2 0.002 0.0762045 -0.115982 -8.95969e-06 -1.17872e-09 -1.16804e-08 -4.55554e-09 4.27947e-06 9.46966e-10 3.01592e-09
4766 2 0.002 0.0831489 -0.112007 -0.000665953 4.17984e-09 -3.03124e-09 3.77584e-09 2.9335e-06 1.08114e-08 2.53651e-08
4833 2 0.002 0.0866076 -0.110012 -0.000755613 5.65345e-09 4.06745e-09 -3.64295e-09 4.02978e-06 1.34194e-08 1.71191e-08
4832 2 0.002 0.0866426 -0.114051 -0.000988192 3.83252e-09 2.17575e-09 7.552e-09 8.09091e-06 2.48648e-08 4.15522e-07
66 1 0.015 0.088532 -0.116097 -0.00198744 4.28515e-08 2.0006e-08 -4.46963e-09 -2.527e-06 0 4.04179e-07
4699 2 0.002 0.0796742 -0.109984 -0.000280612 1.73781e-09 -1.125e-08 2.83339e-09 6.75802e-06 1.10844e-09 1.15746e-08
4963 2 0.002 0.0935247 -0.109995 -0.000226602 4.44782e-09 7.24106e-09 2.81013e-09 4.32079e-06 2.65085e-09 3.26874e-09
4897 2 0.002 0.0900873 -0.11602 -0.000498474 -8.46369e-10 3.2247e-09 1.873e-08 2.23843e-06 2.27048e-08 2.21255e-08
4765 2 0.002 0.0831456 -0.116003 -0.000551446 2.46493e-09 -2.73607e-09 1.46342e-11 2.87146e-06 1.31598e-08 7.40266e-09
4764 2 0.002 0.0831381 -0.119997 -0.000208303 9.95592e-10 -1.68993e-09 6.09561e-10 2.75021e-06 2.96189e-09 1.21537e-09
4698 2 0.002 0.0796737 -0.113987 -0.000318451 1.49782e-09 -8.70192e-09 -2.81741e-09 5.4927e-06 3.07185e-09 6.0584e-09
4898 2 0.002 0.090078 -0.112012 -0.00055202 5.92152e-09 6.23212e-09 -1.09057e-08 5.98664e-06 1.86152e-08 6.30653e-09
4831 2 0.002 0.0866109 -0.118014 -0.000406963 1.33162e-09 -4.13531e-10 -3.08502e-09 2.63179e-06 1.84765e-08 1.78101e-09
4697 2 0.002 0.0796717 -0.117989 -0.000205663 1.15308e-09 -5.75116e-09 7.66961e-09 3.91189e-06 1.78085e-09 2.73572e-09
4696 2 0.002 0.0796696 -0.121994 -5.72348e-05 -2.96804e-10 -3.24115e-09 -3.88826e-09 2.76313e-06 5.73039e-10 1.17252e-09
878 2 0.002 -0.096944 -0.0959755 -0.00106181 -2.54387e-08 1.41396e-08 -8.50331e-09 1.02325e-05 2.04499e-09 1.93864e-08
754 2 0.002 -0.103886 -0.0959884 -0.000286917 -2.06068e-08 1.06686e-08 2.17643e-08 6.62943e-06 1.30784e-09 8.74546e-09
753 2 0.002 -0.103895 -0.0999955 -0.000223315 -1.31535e-08 6.07093e-09 -1.31126e-08 6.3558e-06 2.32822e-09 1.08816e-08
814 2 0.002 -0.100433 -0.10199 -0.000437406 -1.24224e-08 1.08098e-08 4.46085e-09 4.1338e-06 2.93295e-09 2.1326e-08
816 2 0.002 -0.100408 -0.0939778 -0.000591745 -2.9412e-08 1.32853e-08 -6.38224e-09 4.25997e-06 1.32225e-09 1.32294e-08
876 2 0.002 -0.0969677 -0.103985 -0.00066224 -1.72677e-08 1.23682e-08 -2.77994e-08 4.05431e-06 1.7437e-09 1.66579e-08
877 2 0.002 -0.0969561 -0.0999829 -0.000945352 -2.08059e-08 1.6515e-08 -5.96126e-09 9.6207e-06 1.92233e-09 2.20655e-08
813 2 0.002 -0.100444 -0.105989 -0.000217436 -4.21192e-09 5.553e-09 1.49796e-08 0.00674048 2.61452e-09 1.0641e-08
875 2 0.002 -0.096982 -0.107989 -0.000319836 -7.98051e-09 8.94351e-09 7.50409e-09 7.05477e-06 3.01191e-09 1.27062e-08
815 2 0.002 -0.100418 -0.0979842 -0.000608111 -2.08174e-08 1.37575e-08 9.53519e-09 4.01342e-06 1.37782e-09 1.38339e-08
694 2 0.002 -0.107363 -0.098 -7.05776e-05 -1.12418e-08 4.96986e-09 -9.53083e-09 1.84023e-06 1.18354e-09 4.44987e-09
18 1 0.015 -0.0863845 -0.0954461 -0.00482247 3.91038e-07 -4.17789e-07 1.14662e-07 -6.0102e-06 0 1.3583e-06
1072 2 0.002 -0.0865383 -0.0939852 -0.00288455 7.30323e-09 -4.71926e-09 -4.63487e-09 4.2009e-05 7.3475e-08 1.08165e-06
1206 2 0.002 -0.0796223 -0.0939943 -0.00140814 2.83491e-08 -8.54341e-09 1.75588e-08 1.81927e-05 1.57485e-08 6.70751e-08
942 2 0.002 -0.0934742 -0.093969 -0.00155915 -1.34225e-08 6.27345e-09 3.13872e-08 1.36357e-05 6.87924e-09 3.24556e-08
1069 2 0.002 -0.0865724 -0.105996 -0.000933622 -1.8419e-08 2.94359e-08 -8.92212e-09 9.78346e-06 4.00767e-09 2.2842e-08
1204 2 0.002 -0.0796497 -0.101994 -0.000809295 7.52222e-09 1.778e-08 -2.95598e-10 6.68318e-06 4.08471e-09 3.90965e-08
940 2 0.002 -0.0934933 -0.101986 -0.0011965 -1.42894e-08 2.38855e-08 3.68112e-08 1.03606e-05 3.04788e-09 2.38404e-08
1004 2 0.002 -0.0900309 -0.103993 -0.00122339 -1.69623e-08 2.52454e-08 -2.75697e-09 1.02875e-05 4.27972e-09 2.11001e-08
1136 2 0.002 -0.0831025 -0.104001 -0.00102884 -9.64968e-09 2.85814e-08 1.76853e-09 6.09411e-06 5.05581e-09 3.33944e-08
1205 2 0.002 -0.0796295 -0.0979944 -0.00127986 2.69982e-08 3.25546e-09 -1.19901e-08 1.79899e-05 1.02329e-08 7.78423e-08
1137 2 0.002 -0.0830754 -0.100005 -0.00171128 9.52585e-09 1.24729e-08 -2.47276e-08 1.81117e-05 2.84497e-08 6.17376e-08
1138 2 0.002 -0.0830529 -0.096001 -0.00233878 2.14213e-08 6.49501e-10 -1.34324e-08 3.18499e-05 5.04744e-08 4.22641e-07
941 2 0.002 -0.0934827 -0.0979802 -0.00151576 -1.52691e-08 1.67066e-08 2.0814e-08 1.26654e-05 5.36963e-09 3.13583e-08
1005 2 0.002 -0.0900184 -0.0999957 -0.00180376 -1.44746e-08 1.70205e-08 -1.92563e-08 1.46163e-05 1.59118e-08 3.89191e-08
1006 2 0.002 -0.0900145 -0.0959816 -0.00217887 -1.17636e-08 7.5745e-09 -1.88459e-08 1.87404e-05 4.74626e-08 5.8871e-08
1070 2 0.002 -0.0865508 -0.102003 -0.00163239 -8.66802e-09 1.87206e-08 -3.41501e-08 1.4661e-05 1.14722e-08 4.54912e-08
1071 2 0.002 -0.0865387 -0.0980157 -0.00247076 9.59127e-10 1.23104e-08 5.85375e-09 2.61754e-05 4.93216e-08 2.38608e-07
939 2 0.002 -0.0935077 -0.105987 -0.000759774 -1.72339e-08 1.83416e-08 -7.31749e-09 2.69194e-06 1.71642e-09 1.57281e-08
1003 2 0.002 -0.0900478 -0.107988 -0.000660345 -1.90926e-08 2.69031e-08 1.32926e-08 2.40287e-06 2.60187e-09 1.15597e-08
1135 2 0.002 -0.083131 -0.108004 -0.000406233 -2.22324e-08 3.43678e-08 2.36021e-09 2.28938e-06 2.10191e-09 2.59001e-08
1203 2 0.002 -0.0796764 -0.105997 -0.000282194 -1.30439e-08 2.9354e-08 1.25217e-08 5.05852e-06 1.96626e-09 2.33147e-08
1274 2 0.002 -0.0762022 -0.0959914 -0.000537264 2.77238e-08 -3.51037e-09 5.36669e-08 1.36702e-05 3.37021e-09 3.9421e-08
1273 2 0.002 -0.0762175 -0.0999872 -0.000288272 2.26072e-08 6.07014e-09 1.83602e-08 6.55808e-06 2.24877e-09 4.34725e-08
3585 2 0.002 0.0277891 -0.108072 -8.9329e-05 4.02566e-09 -3.17823e-08 1.85095e-08 4.10498e-06 2.41298e-09 1.59879e-08
3664 2 0.002 0.0312527 -0.106068 -2.35809e-05 -2.51009e-09 -2.52965e-08 -1.54273e-08 3.04921e-06 2.47062e-09 2.22097e-08
3896 2 0.002 0.0416027 -0.107961 -0.00113444 -3.7041e-09 4.37017e-09 1.18943e-08 1.48861e-05 5.08027e-09 6.64205e-08
3741 2 0.002 0.0347044 -0.108006 -0.000798468 -3.20479e-09 -8.69686e-09 -2.91401e-08 4.32343e-06 2.29496e-09 4.74339e-08
3819 2 0.002 0.0381478 -0.106023 -0.000460044 -5.58023e-09 -9.26729e-09 2.89413e-10 3.25281e-06 2.18316e-09 6.33434e-08
3973 2 0.002 0.0450496 -0.105993 -0.000493183 -6.90719e-09 1.30345e-08 1.35854e-09 5.19378e-06 3.72369e-09 2.60933e-08
4048 2 0.002 0.04852 -0.107972 -0.000630046 -1.49958e-09 2.92938e-08 -2.82193e-08 2.61795e-06 3.63193e-09 3.07047e-08
4634 2 0.002 0.0761897 -0.0959505 -0.000184723 -1.63098e-08 -2.6546e-08 -2.09975e-08 3.08208e-06 1.07436e-09 2.30966e-08
4702 2 0.002 0.0796514 -0.0979434 -0.000436297 -9.69784e-09 -1.70162e-08 -3.63903e-09 7.69151e-06 1.8424e-09 1.16721e-08
4769 2 0.002 0.0831182 -0.0999479 -0.000588034 -3.68938e-09 -5.98244e-09 -3.1732e-09 6.49461e-06 2.34639e-09 7.28672e-09
4836 2 0.002 0.0865865 -0.0979392 -0.000757056 -1.18098e-09 4.52352e-09 7.99917e-09 6.63361e-06 2.14845e-09 7.6499e-09
4902 2 0.002 0.0900572 -0.0959334 -0.00071445 3.09182e-09 1.30915e-08 -5.9077e-09 6.90195e-06 1.44596e-09 7.86212e-09
4770 2 0.002 0.0831153 -0.0959304 -0.000841879 -7.96506e-09 -7.22395e-09 -1.12171e-08 8.18405e-06 3.42753e-09 1.33045e-08
4837 2 0.002 0.0865888 -0.0939217 -0.00102095 -3.74544e-09 -8.56716e-10 -3.41904e-08 8.52775e-06 3.77648e-09 1.20304e-08
4703 2 0.002 0.079647 -0.0939359 -0.000795088 -1.14592e-08 -1.50641e-08 1.47463e-08 4.92021e-06 3.09668e-09 2.37789e-08
4768 2 0.002 0.0831236 -0.103968 -0.000500134 6.97509e-10 -4.59241e-09 1.27675e-09 5.98674e-06 2.05282e-09 6.22497e-09
4701 2 0.002 0.0796579 -0.101957 -0.000246318 -4.44386e-09 -1.56106e-08 8.46154e-09 6.62553e-06 1.52053e-09 6.69385e-09