ITEM: TIMESTEP
400000
ITEM: NUMBER OF ATOMS
5843
ITEM: BOX BOUNDS ff ff ff
-2.5000000000000000e-01 2.5000000000000000e-01
-2.5000000000000000e-01 2.5000000000000000e-01
-1.0000000000000001e-01 1.0000000000000001e-01
ITEM: ATOMS id type radius x y z fx fy fz v_pressure c_bendingE c_stretchingE
98 1 0.015 -0.0134901 -0.149042 -0.00140557 -3.12014e-09 2.9705e-10 3.02754e-11 -6.24966e-06 0 3.42969e-06
2624 2 0.002 -0.0138853 -0.144055 -0.000358044 -1.29082e-11 4.84428e-12 5.93511e-11 7.13269e-06 3.22345e-08 2.06927e-06
2703 2 0.002 -0.0104416 -0.146058 -0.00049843 -1.96636e-11 -1.61318e-13 6.52918e-11 5.53569e-06 4.06024e-08 1.44114e-06
2783 2 0.002 -0.00698212 -0.143995 -1.42615e-05 -2.13459e-11 -7.23247e-12 7.49122e-11 5.16043e-06 1.62586e-08 2.60393e-08
3655 2 0.002 0.0311726 -0.141979 -6.1303e-05 -1.36735e-11 -6.82313e-12 7.29254e-12 5.28477e-06 1.54671e-09 5.95286e-09
3498 2 0.002 0.0242397 -0.14197 -7.29676e-05 -7.4826e-12 -4.26098e-12 6.30229e-11 6.18644e-06 4.96711e-10 8.63338e-09
3576 2 0.002 0.0277082 -0.143981 -4.86199e-05 -5.86957e-12 -5.40912e-12 -1.29494e-11 2.51383e-06 4.34402e-10 5.19495e-09
3419 2 0.002 0.0207788 -0.143979 1.08518e-05 3.08934e-12 -8.2762e-12 -1.32628e-10 5.7069e-06 4.26464e-10 6.44544e-09
1477 2 0.002 -0.0658403 -0.130026 -0.000480754 4.50061e-12 1.32494e-11 9.67831e-11 7.85304e-07 1.12496e-08 4.06797e-08
1478 2 0.002 -0.0658497 -0.126045 -0.000692604 1.2015e-11 6.51345e-12 1.36477e-11 3.95501e-06 6.82573e-09 3.80727e-07
1406 2 0.002 -0.069297 -0.128016 -0.000358665 -2.1176e-12 9.93188e-13 -6.53978e-11 1.2096e-07 7.90197e-09 1.11643e-08
56 1 0.015 -0.0677759 -0.129685 -0.00108316 -5.07047e-10 2.62233e-10 -4.74294e-11 -2.76701e-06 0 4.10192e-07
1336 2 0.002 -0.0727451 -0.125997 -0.000124188 1.01073e-11 -3.34366e-12 2.2293e-11 1.68554e-06 1.74195e-09 4.99059e-10
1849 2 0.002 -0.0484702 -0.127982 -0.000551326 1.55708e-11 -1.74239e-11 1.21865e-11 2.18973e-06 7.64988e-10 3.29745e-09
1774 2 0.002 -0.0519335 -0.125983 -0.000766238 1.12617e-11 -1.03298e-11 -2.94827e-11 2.37358e-06 7.05751e-10 4.06911e-09
1848 2 0.002 -0.0484855 -0.131984 -0.000245616 1.5273e-11 -1.31919e-11 2.91789e-12 3.21991e-06 7.24676e-10 2.03496e-09
1550 2 0.002 -0.0623624 -0.12801 -0.000621261 1.00259e-11 4.26435e-12 -4.24361e-11 4.33543e-06 5.1446e-09 4.55061e-09
1624 2 0.002 -0.058884 -0.125994 -0.000709734 1.15588e-11 8.27284e-12 1.81767e-11 4.68747e-06 1.67206e-09 4.72217e-09
1623 2 0.002 -0.0588865 -0.129994 -0.000474351 7.67018e-12 3.75725e-12 5.86548e-13 3.69006e-06 7.88765e-10 2.54869e-09
1622 2 0.002 -0.0588878 -0.133993 -0.000178486 2.76891e-12 2.6452e-12 1.20944e-11 3.00596e-06 1.04024e-09 1.76829e-09
1772 2 0.002 -0.0519553 -0.133989 -0.000192123 7.77825e-12 -4.51061e-12 -8.59731e-12 1.55769e-06 5.99997e-10 2.29002e-09
1697 2 0.002 -0.0554182 -0.131988 -0.000335482 7.05672e-12 -6.93174e-13 -5.82614e-12 1.67012e-06 3.21203e-10 2.08497e-09
1698 2 0.002 -0.0554117 -0.127987 -0.00061766 1.04346e-11 5.27768e-13 3.43452e-12 4.17114e-06 4.53036e-10 3.26454e-09
1773 2 0.002 -0.0519456 -0.129984 -0.000462077 1.17688e-11 -6.5372e-12 1.16034e-11 1.9128e-06 2.70592e-10 2.74075e-09
1549 2 0.002 -0.0623573 -0.132001 -0.000291941 3.33523e-12 1.87569e-12 -2.13553e-11 3.11265e-06 4.10178e-09 1.78084e-09
1696 2 0.002 -0.0554229 -0.135992 -9.74752e-05 1.83718e-12 5.46331e-13 1.05149e-12 1.29933e-06 6.17372e-10 1.33599e-09
1847 2 0.002 -0.0484959 -0.135992 -4.30229e-05 8.93811e-12 -6.94007e-12 -9.79056e-12 2.27247e-06 6.91588e-10 1.23424e-09
1925 2 0.002 -0.0449945 -0.125983 -0.000589371 1.83558e-11 -3.01245e-11 2.73602e-12 2.69215e-06 1.72111e-09 5.12172e-09
2001 2 0.002 -0.0415463 -0.127986 -0.000131133 2.56331e-11 -3.21374e-11 1.68824e-11 2.52569e-06 1.48201e-09 4.7829e-09
1924 2 0.002 -0.0450144 -0.129984 -0.000230982 2.33199e-11 -2.57831e-11 -1.59011e-11 3.99808e-06 1.03006e-09 2.98589e-09
1923 2 0.002 -0.0450314 -0.13399 2.66689e-05 1.93925e-11 -1.60686e-11 1.27932e-12 2.63706e-06 1.59096e-09 1.81616e-09
3502 2 0.002 0.0242105 -0.125881 -0.00105686 -3.14531e-11 -1.02453e-11 3.77454e-11 1.17704e-05 5.15743e-09 2.19246e-08
3344 2 0.002 0.0172902 -0.12588 -0.000183454 -2.68508e-11 -1.76214e-11 1.35485e-11 9.92806e-06 1.80381e-09 1.71236e-08
3422 2 0.002 0.0207591 -0.131906 -0.00033145 -4.17858e-11 -1.37806e-11 5.39148e-11 4.01096e-06 8.12685e-10 1.04055e-08
3423 2 0.002 0.020753 -0.127885 -0.000540104 -4.17153e-11 -1.61894e-11 -8.48847e-12 9.62779e-06 1.72251e-09 1.45687e-08
3501 2 0.002 0.0242214 -0.1299 -0.000693276 -5.02037e-11 -1.72847e-11 -3.53313e-11 9.14445e-06 1.67867e-09 1.43362e-08
3579 2 0.002 0.0276952 -0.13192 -0.000628327 -5.01904e-11 -1.15018e-11 2.84139e-11 4.32763e-06 1.80902e-09 1.58236e-08
3580 2 0.002 0.0276842 -0.127903 -0.00104796 -4.28045e-11 -1.38209e-11 2.3422e-11 1.08914e-05 3.80992e-09 2.47335e-08
3499 2 0.002 0.0242337 -0.137945 -0.000203388 -2.43321e-11 -6.94286e-12 5.00295e-11 6.69226e-06 5.1562e-10 8.63022e-09
3578 2 0.002 0.0277003 -0.135939 -0.00033272 -3.94292e-11 -1.09191e-11 6.8893e-12 7.01194e-06 9.43029e-10 9.576e-09
3421 2 0.002 0.0207651 -0.135929 -0.000155408 -3.15012e-11 -1.00266e-11 3.88493e-11 7.01325e-06 4.70953e-10 8.70167e-09
3500 2 0.002 0.0242288 -0.133921 -0.000406107 -4.52856e-11 -1.57862e-11 -4.22631e-11 3.79098e-06 9.13329e-10 1.0464e-08
3656 2 0.002 0.0311711 -0.137958 -0.000149073 -3.2832e-11 -1.13563e-11 -2.96085e-12 6.3039e-06 1.64827e-09 7.69517e-09
3657 2 0.002 0.0311704 -0.133943 -0.000389326 -4.83766e-11 -1.35702e-11 -6.83335e-12 2.81005e-06 1.47324e-09 1.87927e-08
3658 2 0.002 0.0311595 -0.129928 -0.000782084 -4.90447e-11 -1.72125e-11 -1.9578e-11 3.29842e-06 1.87285e-09 2.64428e-08
3577 2 0.002 0.0277036 -0.13996 -0.000152032 -2.08891e-11 -1.01883e-11 -3.58348e-11 2.97052e-06 6.44001e-10 6.93548e-09
3659 2 0.002 0.0311483 -0.125914 -0.00129025 -3.33357e-11 -1.96308e-11 -2.82917e-11 6.14409e-06 5.01088e-09 3.54486e-08
3343 2 0.002 0.0172917 -0.129897 -0.000109353 -4.01124e-11 -2.11029e-11 2.86461e-11 8.38082e-06 9.49107e-10 1.09313e-08
3342 2 0.002 0.0172969 -0.133918 -6.07451e-06 -4.36876e-11 -2.2279e-11 -4.61296e-11 7.36119e-06 4.95693e-10 8.61671e-09
3420 2 0.002 0.02077 -0.139955 -3.66285e-05 -9.10378e-12 -7.05593e-12 -9.94574e-11 6.5234e-06 3.55238e-10 7.76024e-09
3736 2 0.002 0.0346175 -0.12794 -0.00082296 -4.54203e-11 -1.24598e-11 6.80543e-12 3.5448e-06 1.10027e-09 3.41186e-08
3814 2 0.002 0.0380728 -0.125949 -0.000752785 -3.89106e-11 -7.35964e-12 2.06018e-11 3.34881e-06 1.72977e-09 2.78613e-08
3968 2 0.002 0.0450075 -0.125975 -0.000371284 -3.94369e-11 -1.11534e-11 5.18507e-11 0.00747306 1.72638e-09 9.39541e-09
3735 2 0.002 0.0346305 -0.131956 -0.000364448 -5.40314e-11 -9.00138e-12 2.76302e-11 2.44501e-06 1.43459e-09 3.29789e-08
3891 2 0.002 0.0415372 -0.127977 -0.00033847 -4.3888e-11 -1.50895e-11 -3.77463e-11 3.10922e-06 1.71159e-09 2.34679e-08
3813 2 0.002 0.0380813 -0.12997 -0.000331511 -5.0364e-11 -1.00083e-11 6.30684e-12 2.57062e-06 1.26902e-09 3.5868e-08
3967 2 0.002 0.0450057 -0.129992 -0.000101894 -4.62332e-11 -1.54195e-11 -1.67444e-11 8.1036e-06 1.71405e-09 1.16895e-08
4341 2 0.002 0.0624146 -0.132057 -0.000782104 -5.75659e-12 2.50763e-11 1.58434e-10 3.03638e-06 5.90693e-08 2.73633e-08
4342 2 0.002 0.0624464 -0.128087 -0.00119201 -1.50467e-11 -1.00319e-11 1.18129e-11 6.00363e-06 5.28492e-08 1.14795e-07
4268 2 0.002 0.0589344 -0.130029 -0.000795183 -2.92506e-11 -1.64328e-11 -5.42055e-11 2.72649e-06 1.30884e-08 1.60711e-08
4194 2 0.002 0.055452 -0.128007 -0.000619654 -3.44432e-11 -1.97165e-11 -2.19115e-11 3.68848e-06 2.24163e-09 1.21365e-08
4267 2 0.002 0.0589114 -0.134002 -0.000347604 -1.22315e-11 -1.04596e-11 -5.58919e-11 1.45823e-06 7.76134e-09 6.38123e-09
4269 2 0.002 0.0589483 -0.126032 -0.000846221 -1.81482e-11 -2.52325e-11 8.8918e-11 3.6154e-06 4.86717e-09 3.56824e-08
4192 2 0.002 0.0554299 -0.135992 -0.000129071 -9.40255e-12 -2.63669e-12 1.3027e-11 1.71645e-06 1.9265e-09 2.30585e-09
4119 2 0.002 0.05197 -0.125992 -0.000458537 -3.372e-11 -2.07307e-11 2.07673e-11 6.88832e-06 1.38765e-09 8.65347e-09
4193 2 0.002 0.0554387 -0.132 -0.000425654 -2.59804e-11 -1.15335e-11 1.2518e-11 2.80565e-06 2.38854e-09 7.95952e-09
4043 2 0.002 0.0484837 -0.127987 -0.000292851 -4.25563e-11 -1.74257e-11 -1.71307e-11 0.00681022 1.17649e-09 7.14071e-09
4118 2 0.002 0.0519611 -0.129995 -0.000350928 -3.4892e-11 -1.42961e-11 6.0043e-11 6.43332e-06 1.06111e-09 8.07365e-09
4117 2 0.002 0.0519546 -0.133995 -0.000145574 -2.7384e-11 -1.01089e-11 -7.60672e-12 2.76912e-06 1.03541e-09 6.00148e-09
4042 2 0.002 0.0484787 -0.131995 -7.13875e-05 -4.22649e-11 -1.64766e-11 -4.81551e-11 6.84364e-06 1.84587e-09 8.32958e-09
76 1 0.015 0.066733 -0.131648 -0.00306019 1.76161e-09 1.0431e-09 -2.36532e-10 -7.57801e-06 0 1.87339e-06
4414 2 0.002 0.0659655 -0.130225 -0.00152513 -5.35763e-12 -6.51607e-12 -2.9241e-12 4.70467e-05 1.67597e-07 2.04878e-06
4415 2 0.002 0.0658894 -0.126097 -0.00112915 -5.965e-12 -1.24229e-11 -6.21339e-11 6.17525e-06 5.35733e-08 1.42165e-07
4486 2 0.002 0.0693191 -0.128065 -0.000729055 -1.22136e-12 -1.1327e-11 -2.59687e-11 4.12566e-06 5.76145e-08 3.36481e-08
4557 2 0.002 0.0727557 -0.12601 -0.00022758 -5.25954e-13 -9.57911e-12 -9.53657e-13 6.74079e-07 6.53503e-09 9.68714e-09
1479 2 0.002 -0.0658112 -0.122009 -0.000461103 1.61482e-11 1.02024e-11 -1.02256e-11 3.32266e-06 3.55126e-09 1.30481e-08
1407 2 0.002 -0.069281 -0.124002 -0.00034423 1.55181e-11 2.51014e-13 9.3452e-13 3.58508e-06 4.97023e-09 2.48613e-09
1408 2 0.002 -0.0692599 -0.119995 -9.88956e-05 1.90269e-11 -4.78086e-13 1.05872e-11 4.55272e-06 1.26383e-09 3.31545e-09
1480 2 0.002 -0.0657848 -0.117997 -0.000128186 1.32586e-11 1.40875e-11 3.82663e-13 5.8829e-06 8.84195e-10 6.31913e-09
1337 2 0.002 -0.0727338 -0.121991 -3.71036e-05 1.73842e-11 -8.321e-12 -6.35968e-12 3.05299e-06 1.30017e-09 1.40742e-09
1267 2 0.002 -0.0762058 -0.123993 1.82339e-05 1.11318e-11 -9.50586e-12 1.00185e-12 2.34877e-06 6.36314e-10 1.01401e-09
1626 2 0.002 -0.0588531 -0.11798 -0.000647876 4.61781e-12 2.1797e-11 6.78321e-12 3.03365e-06 2.31434e-09 6.68252e-09
1851 2 0.002 -0.0484386 -0.119986 -0.00134886 5.32463e-13 -1.829e-11 6.44993e-12 7.71769e-06 5.10317e-09 9.42902e-09
1552 2 0.002 -0.062334 -0.119992 -0.000518965 1.27878e-11 1.73507e-11 6.19366e-12 5.7852e-06 2.094e-09 6.52729e-09
1776 2 0.002 -0.0519092 -0.117975 -0.00127281 -5.42587e-12 -1.02561e-12 -2.37694e-11 7.73913e-06 5.32758e-09 1.19739e-08
1778 2 0.002 -0.0518863 -0.109982 -0.00106127 -4.42544e-12 4.93941e-12 7.82418e-11 6.51195e-06 4.85775e-09 4.76399e-08
1777 2 0.002 -0.0518998 -0.113972 -0.00131445 -1.45033e-11 5.90294e-12 -2.0283e-11 5.20006e-06 6.85909e-09 2.37673e-08
1852 2 0.002 -0.0484313 -0.115987 -0.00176408 -1.15513e-11 -1.68048e-11 -2.24963e-11 1.20162e-05 1.82836e-08 2.72401e-08
1853 2 0.002 -0.048432 -0.111984 -0.00187659 -1.79961e-11 -9.25777e-12 -1.62417e-11 1.67403e-05 4.02931e-08 6.21468e-08
1700 2 0.002 -0.0553902 -0.119978 -0.000954524 3.48412e-12 1.02034e-11 -6.82403e-12 3.00062e-06 2.98415e-09 7.56206e-09
1775 2 0.002 -0.051921 -0.121981 -0.00105646 5.75522e-12 -5.28253e-12 3.936e-12 5.85443e-06 2.16127e-09 6.34048e-09
1850 2 0.002 -0.0484534 -0.123983 -0.000924319 1.05328e-11 -2.05233e-11 9.38228e-13 5.6976e-06 1.56703e-09 5.38503e-09
1701 2 0.002 -0.0553739 -0.115972 -0.000903538 -4.20452e-12 1.84373e-11 6.97785e-12 7.38879e-06 3.40434e-09 1.09005e-08
1702 2 0.002 -0.0553547 -0.111978 -0.000651405 -1.79189e-11 2.90962e-11 -2.48249e-11 9.42505e-06 2.17411e-09 2.12065e-08
1627 2 0.002 -0.0588291 -0.113982 -0.000357875 -7.17182e-12 3.21522e-11 -5.35523e-12 7.30076e-06 1.76164e-09 9.61854e-09
1551 2 0.002 -0.0623606 -0.124006 -0.000698134 1.36536e-11 1.0314e-11 8.45784e-12 3.22865e-06 4.11904e-09 1.28456e-08
1625 2 0.002 -0.0588739 -0.121988 -0.000770075 8.86849e-12 1.39246e-11 -3.11705e-11 5.54794e-06 2.32932e-09 7.41488e-09
1699 2 0.002 -0.0554028 -0.123985 -0.000845193 9.63572e-12 4.10395e-12 4.40716e-12 2.49609e-06 1.50775e-09 5.1628e-09
1553 2 0.002 -0.0623072 -0.11599 -0.000194767 2.36196e-12 2.74483e-11 -1.65808e-11 6.24631e-06 1.35225e-09 5.98747e-09
24 1 0.015 -0.0439578 -0.112546 -0.00457316 -3.11489e-10 -1.2181e-09 -2.97144e-10 -5.23378e-06 0 1.22386e-06
1929 2 0.002 -0.0449602 -0.110007 -0.00243171 -2.20483e-11 -2.60219e-11 -5.52371e-11 3.31503e-05 5.45839e-08 6.91872e-07
1926 2 0.002 -0.0449727 -0.121988 -0.00105611 7.89398e-12 -3.32239e-11 2.22637e-12 7.4983e-06 4.07895e-09 1.02617e-08
2160 2 0.002 -0.0345619 -0.112076 -0.000676848 -4.05149e-11 -2.3659e-11 9.10044e-11 3.58093e-06 6.72195e-09 4.92807e-08
2083 2 0.002 -0.0380018 -0.110079 -0.00151773 -2.03194e-11 -3.69806e-11 -2.25186e-11 6.88529e-06 2.16978e-08 5.35345e-08
2081 2 0.002 -0.0380344 -0.118017 -0.00079412 -1.22676e-11 -3.21451e-11 5.91054e-11 5.79388e-06 4.41988e-09 4.87835e-08
1927 2 0.002 -0.0449534 -0.118004 -0.00167061 -5.12128e-12 -3.73092e-11 -2.7951e-11 1.18821e-05 1.78691e-08 2.62811e-08
1928 2 0.002 -0.0449508 -0.114029 -0.00245205 -1.58221e-11 -3.19051e-11 -8.31716e-12 2.48522e-05 5.12963e-08 2.97825e-07
2003 2 0.002 -0.0414958 -0.120001 -0.00105938 1.37122e-12 -3.81787e-11 1.6274e-11 4.83965e-06 5.78741e-09 2.14119e-08
2004 2 0.002 -0.0414686 -0.116031 -0.00174158 -1.38732e-11 -3.50369e-11 2.51125e-11 1.58143e-05 4.016e-08 6.07963e-08
2005 2 0.002 -0.04145 -0.112055 -0.00239049 -1.59516e-11 -4.14412e-11 -4.59881e-11 3.03098e-05 5.36441e-08 5.48866e-07
2082 2 0.002 -0.0380061 -0.114054 -0.00135025 -1.01002e-11 -4.0848e-11 -2.4773e-11 7.9374e-06 1.86105e-08 1.01223e-07
2159 2 0.002 -0.0345936 -0.116034 -0.000259433 1.98036e-12 -3.80649e-11 -3.51341e-11 4.02174e-06 1.98205e-09 7.0103e-08
2080 2 0.002 -0.0380623 -0.121992 -0.000274466 1.86902e-11 -4.25769e-11 -1.97268e-11 8.17052e-06 2.10494e-09 1.80742e-08
2002 2 0.002 -0.0415227 -0.123987 -0.000524389 1.90521e-11 -3.91497e-11 -4.12438e-12 6.65278e-06 2.49998e-09 8.68749e-09
2238 2 0.002 -0.0311014 -0.110091 -0.000158108 -4.95006e-12 -2.64936e-11 -9.26891e-11 4.15363e-06 4.67691e-09 2.08972e-08
3425 2 0.002 0.0207482 -0.119855 -0.000764257 1.15007e-11 -2.23029e-12 1.82055e-11 1.50205e-05 5.08189e-09 4.39957e-08
3426 2 0.002 0.0207557 -0.115858 -0.000525261 2.59505e-11 1.09699e-11 -4.3827e-11 1.66823e-05 4.09038e-09 6.33702e-08
3503 2 0.002 0.0242027 -0.121861 -0.00142253 -3.33517e-12 -8.04961e-12 3.14545e-11 1.76618e-05 1.90342e-08 5.91895e-08
3504 2 0.002 0.0242009 -0.117849 -0.00145109 2.89084e-11 -3.05112e-12 2.21464e-11 2.20414e-05 3.67183e-08 9.66209e-08
3505 2 0.002 0.0242088 -0.113849 -0.000995292 4.57363e-11 9.18632e-12 -1.08457e-11 1.06265e-05 1.4251e-08 1.11214e-07
3582 2 0.002 0.0276632 -0.119879 -0.0022915 6.84001e-12 -2.04161e-11 -4.78423e-12 3.22675e-05 5.17084e-08 6.11787e-07
3583 2 0.002 0.0276643 -0.115849 -0.00200381 4.11028e-11 -1.41329e-11 -6.98546e-12 3.85589e-05 4.59475e-08 8.92294e-07
3584 2 0.002 0.0276629 -0.11185 -0.0010298 4.97532e-11 6.01876e-12 2.8153e-11 1.03457e-05 1.39836e-08 1.0897e-07
20 1 0.015 0.0298279 -0.119197 -0.00430364 6.52781e-10 -3.27445e-09 -5.22014e-10 -5.51484e-06 0 1.56575e-06
3581 2 0.002 0.0276699 -0.123889 -0.00160313 -2.27032e-11 -1.78735e-11 4.1488e-12 1.53846e-05 2.0859e-08 4.41291e-08
3427 2 0.002 0.0207656 -0.11187 -4.29568e-05 3.20677e-11 2.57618e-11 -8.40426e-11 7.82333e-06 2.77553e-09 5.74862e-08
3424 2 0.002 0.0207497 -0.123866 -0.000726289 -2.49026e-11 -1.10505e-11 -2.30784e-11 1.23758e-05 4.00103e-09 2.78028e-08
3345 2 0.002 0.0172924 -0.121869 -0.000164108 -6.14566e-12 -1.02139e-11 -8.57943e-12 1.16182e-05 1.98022e-09 2.60661e-08
3506 2 0.002 0.0242178 -0.109858 -0.000254781 5.62228e-11 1.22363e-11 5.33502e-11 7.93061e-06 4.55541e-09 5.61682e-08
3663 2 0.002 0.0311287 -0.109864 -0.000619972 5.036e-11 2.74602e-11 -1.74522e-11 1.56254e-05 4.60174e-09 5.7316e-08
3662 2 0.002 0.0311283 -0.113854 -0.0014785 3.52199e-11 -1.4012e-11 1.01585e-10 2.0519e-05 3.52369e-08 8.22811e-08
3660 2 0.002 0.031146 -0.121901 -0.00185279 -1.00837e-11 -1.44829e-11 1.52845e-11 1.63083e-05 4.00486e-08 4.87133e-08
3661 2 0.002 0.0311561 -0.117869 -0.00227181 2.19654e-11 -1.54135e-11 -1.40093e-12 2.9032e-05 5.02704e-08 4.18297e-07
3737 2 0.002 0.0346107 -0.123922 -0.00127835 -2.01325e-11 -1.57921e-11 -3.54628e-11 6.08003e-06 4.66037e-09 3.51764e-08
3816 2 0.002 0.0380666 -0.117906 -0.00105025 2.67633e-11 5.77467e-12 -7.79252e-11 1.11843e-05 4.5587e-09 1.96103e-08
3739 2 0.002 0.0345975 -0.115877 -0.00141985 2.03108e-11 -3.33398e-12 7.74815e-11 1.62502e-05 1.7222e-08 4.58242e-08
3738 2 0.002 0.0346101 -0.119897 -0.00158666 -2.59234e-12 -5.90932e-12 5.2333e-11 1.46051e-05 1.95473e-08 3.92853e-08
3740 2 0.002 0.0345917 -0.111877 -0.000820297 4.73543e-11 2.01721e-11 -2.36267e-12 1.39136e-05 4.61641e-09 3.42075e-08
3818 2 0.002 0.038064 -0.109903 -0.000243386 5.26121e-11 2.32384e-11 -3.99143e-12 1.07948e-05 1.57544e-09 1.90984e-08
3817 2 0.002 0.0380607 -0.1139 -0.000740337 4.20547e-11 1.58209e-11 -2.86232e-11 1.17459e-05 3.29444e-09 2.30951e-08
3894 2 0.002 0.0415348 -0.115922 -0.000543523 2.27536e-11 4.4799e-12 3.8322e-11 9.39174e-06 1.52618e-09 1.38253e-08
3895 2 0.002 0.0415362 -0.111923 -0.000188201 4.58414e-11 1.44203e-11 1.43865e-11 4.9206e-06 1.14507e-09 1.60689e-08
3892 2 0.002 0.0415353 -0.123954 -0.000621535 -2.7573e-11 -9.37409e-12 3.7834e-12 4.32284e-06 2.2471e-09 1.56288e-08
3893 2 0.002 0.0415355 -0.119934 -0.000704162 -3.14558e-12 -2.91422e-12 2.32555e-11 8.76825e-06 2.06427e-09 1.28371e-08
3815 2 0.002 0.0380689 -0.121927 -0.00103123 -6.52148e-12 -6.44757e-12 -5.32441e-11 1.05314e-05 3.67178e-09 2.31825e-08
3969 2 0.002 0.0450099 -0.121958 -0.00047677 -1.7084e-11 -9.19375e-12 -1.21248e-11 7.40056e-06 1.86085e-09 9.06536e-09
3970 2 0.002 0.0450108 -0.117945 -0.000376195 1.03856e-11 -2.29392e-12 -9.03652e-12 3.9392e-06 1.35784e-09 9.79261e-09
3971 2 0.002 0.0450112 -0.113942 -8.6377e-05 3.45814e-11 4.6271e-12 1.57429e-11 4.30237e-06 8.02479e-10 1.16343e-08
4343 2 0.002 0.0624166 -0.124049 -0.000891057 -1.29289e-11 -2.229e-11 -7.50321e-12 4.02023e-06 1.27391e-08 3.49542e-08
4195 2 0.002 0.0554592 -0.124004 -0.000570134 -2.77259e-11 -2.20613e-11 -6.29432e-11 8.20022e-06 2.12028e-09 1.5804e-08
4270 2 0.002 0.0589365 -0.122018 -0.00057756 -1.63836e-11 -2.50924e-11 -2.86165e-11 4.60831e-06 2.20256e-09 1.89829e-08
4344 2 0.002 0.0624004 -0.120026 -0.000436925 -5.73143e-12 -4.0486e-11 8.87577e-11 3.14832e-06 1.55445e-09 2.0737e-08
4271 2 0.002 0.058926 -0.118009 -0.0001698 -7.75519e-16 -2.5838e-11 -2.15066e-11 4.14518e-06 4.57369e-10 1.36994e-08
4196 2 0.002 0.0554543 -0.119997 -0.000311987 -8.61865e-12 -2.40714e-11 -1.25852e-11 3.92709e-06 1.16132e-09 1.24138e-08
4044 2 0.002 0.0484889 -0.123977 -0.000396983 -2.9411e-11 -1.7135e-11 -4.59147e-11 0.0068156 1.60469e-09 7.5128e-09
4120 2 0.002 0.051974 -0.121984 -0.000385578 -1.81119e-11 -2.34184e-11 5.99384e-11 7.19765e-06 1.56578e-09 9.85928e-09
4045 2 0.002 0.0484909 -0.119966 -0.000316998 -5.18308e-12 -1.22827e-11 -2.55072e-11 7.12232e-06 1.51998e-09 8.51422e-09
4046 2 0.002 0.0484896 -0.115961 -5.01535e-05 2.10259e-11 -4.5871e-12 -1.69988e-11 7.68323e-06 1.0013e-09 9.21648e-09
4121 2 0.002 0.0519715 -0.117979 -0.000129065 4.51281e-12 -1.69829e-11 8.40123e-12 7.4153e-06 1.16813e-09 9.64021e-09
4345 2 0.002 0.0623925 -0.116015 2.92083e-05 6.38846e-12 -2.30334e-11 -6.91922e-11 4.07748e-06 4.35316e-10 1.33085e-08
4197 2 0.002 0.0554475 -0.115995 8.2711e-05 1.25872e-11 -1.83619e-11 -1.24334e-11 7.72945e-06 5.109e-10 1.07468e-08
4487 2 0.002 0.0693198 -0.124032 -0.000600384 -1.8492e-11 -2.8415e-11 1.16269e-10 2.66418e-06 1.41713e-08 2.61592e-08
4416 2 0.002 0.0658667 -0.122045 -0.000637912 -4.51977e-12 -1.56043e-11 -9.3735e-11 3.76561e-06 3.62449e-09 4.62163e-08
4488 2 0.002 0.0693227 -0.120018 -0.000207977 -4.33103e-12 -3.5047e-11 6.9054e-11 2.51599e-06 1.84465e-09 1.86804e-08
4417 2 0.002 0.0658611 -0.118023 -0.00015839 9.612e-13 -3.27692e-11 7.45318e-12 2.88523e-06 1.06631e-09 1.92458e-08
4558 2 0.002 0.0727759 -0.122005 -7.98772e-05 9.97242e-12 -1.43132e-11 -7.73587e-11 1.65851e-06 3.17435e-09 1.57899e-08
637 2 0.002 -0.110825 -0.0959878 -0.000132682 1.58523e-12 9.42347e-12 -6.34698e-12 8.11847e-06 1.18965e-09 1.4963e-08
694 2 0.002 -0.107353 -0.0979847 -0.000220914 -2.99999e-12 8.33772e-12 -2.62933e-11 9.44921e-06 1.53417e-09 2.25749e-08
695 2 0.002 -0.107328 -0.0939754 -0.000402685 5.93091e-12 2.11916e-11 4.61406e-11 4.81227e-06 9.95946e-10 2.25435e-08
816 2 0.002 -0.100351 -0.0939484 -0.000919186 2.86372e-12 7.76591e-12 4.79665e-12 1.26041e-05 2.47528e-09 4.17115e-08
754 2 0.002 -0.103854 -0.0959673 -0.000544163 -2.26756e-12 1.28027e-11 -1.32276e-11 5.35539e-06 1.01821e-09 3.08083e-08
878 2 0.002 -0.0968805 -0.095939 -0.000877092 -3.5564e-12 -9.73188e-12 8.80788e-12 1.23969e-05 3.2506e-09 3.46951e-08
877 2 0.002 -0.0969228 -0.099947 -0.000459586 -1.19907e-11 -1.20122e-11 8.75281e-12 3.27046e-06 1.48681e-09 2.27709e-08
753 2 0.002 -0.103887 -0.0999797 -0.000259363 -4.78017e-12 7.51507e-12 1.69833e-11 5.19017e-06 1.77983e-09 2.99673e-08
814 2 0.002 -0.100424 -0.101967 -0.00025114 -9.12712e-12 -1.51782e-12 -7.55028e-12 3.1347e-06 1.49266e-09 2.63543e-08
815 2 0.002 -0.100387 -0.0979562 -0.000573869 -7.05011e-12 2.2949e-12 -3.78661e-12 3.56904e-06 1.12489e-09 3.18622e-08
813 2 0.002 -0.100444 -0.105978 -7.28955e-05 -5.98642e-12 -2.79306e-12 8.1755e-12 3.22732e-06 9.66407e-10 1.00969e-08
876 2 0.002 -0.0969565 -0.103959 -0.000169611 -1.274e-11 -1.35784e-11 -1.63611e-11 3.68851e-06 1.18245e-09 1.20847e-08
875 2 0.002 -0.0969841 -0.107977 -2.90165e-05 -8.14513e-12 -8.43725e-12 1.1797e-11 1.78696e-06 1.513e-09 8.32e-09
1072 2 0.002 -0.0864434 -0.0939404 -0.000251675 -1.003e-11 -4.96549e-11 3.9128e-11 1.3762e-05 3.36483e-09 3.33343e-08
941 2 0.002 -0.0934221 -0.0979341 -0.000578235 -1.02759e-11 -3.2002e-11 -7.09233e-12 1.14291e-05 2.90109e-09 2.4387e-08
942 2 0.002 -0.0933706 -0.0939253 -0.00110867 1.93739e-12 -2.90059e-11 -4.96991e-12 1.59832e-05 9.59368e-09 4.70441e-08
1006 2 0.002 -0.0899267 -0.0959319 -0.000537959 -1.12861e-11 -4.2453e-11 3.26936e-11 1.29432e-05 3.31915e-09 2.57568e-08
940 2 0.002 -0.0934648 -0.101948 -0.00019994 -1.71146e-11 -2.8203e-11 2.60443e-11 4.3366e-06 1.54021e-09 1.39794e-08
1005 2 0.002 -0.0899761 -0.0999455 -0.000128968 -1.36483e-11 -5.1018e-11 -3.21494e-11 5.04678e-06 1.41368e-09 1.6549e-08
1779 2 0.002 -0.0518651 -0.106013 -0.000517389 -2.6891e-11 2.21452e-11 -2.36539e-11 6.90514e-06 2.08834e-09 5.79911e-08
1855 2 0.002 -0.0483979 -0.10403 -0.000701909 -8.80506e-12 -1.7098e-11 7.54738e-11 4.65483e-06 4.74784e-09 4.63932e-08
1854 2 0.002 -0.0484203 -0.107995 -0.00147 -2.70122e-11 -2.51837e-13 -4.84693e-11 9.0455e-06 1.88857e-08 1.00318e-07
1703 2 0.002 -0.0553331 -0.108004 -0.000192687 -2.02295e-11 3.1447e-11 1.56636e-11 5.75625e-06 1.19952e-09 3.91968e-08
1930 2 0.002 -0.0449507 -0.10603 -0.00148606 -1.77342e-11 -3.17924e-11 2.46265e-11 8.62524e-06 2.01964e-08 7.2026e-08
2006 2 0.002 -0.0414769 -0.10805 -0.00182915 -1.99001e-11 -3.36454e-11 -4.29086e-11 1.65102e-05 4.29728e-08 4.07741e-08
2084 2 0.002 -0.0379994 -0.106079 -0.00126568 -2.19636e-11 -3.47094e-11 8.90692e-12 8.84737e-06 9.79714e-09 1.39443e-08
2162 2 0.002 -0.0345091 -0.104099 -0.000934602 -1.35284e-11 -2.00342e-11 -7.30554e-11 2.8838e-06 7.46465e-09 7.27356e-09
2007 2 0.002 -0.0414679 -0.10406 -0.00116087 -1.70435e-11 -3.7059e-11 4.05943e-11 1.10839e-05 6.9902e-09 2.16713e-08
2161 2 0.002 -0.0345379 -0.108098 -0.000893816 -2.19035e-11 -2.48224e-11 1.31348e-11 2.57044e-06 8.69988e-09 1.93974e-08
2164 2 0.002 -0.0344379 -0.0960985 -0.000618363 -1.60387e-12 -4.66977e-12 -1.01309e-10 4.16259e-06 2.83506e-09 1.41193e-08
1931 2 0.002 -0.0449204 -0.102057 -0.000653588 -1.25715e-11 -1.87116e-11 1.34636e-11 6.25908e-06 3.47212e-09 3.36178e-08
2085 2 0.002 -0.0379763 -0.102079 -0.000900286 -1.18053e-11 -3.05635e-11 4.97229e-11 7.3668e-06 4.99921e-09 8.57569e-09
2163 2 0.002 -0.0344758 -0.100096 -0.000836357 -7.59986e-13 -2.1161e-11 1.12932e-10 3.1627e-06 5.22182e-09 7.90985e-09
2008 2 0.002 -0.0414329 -0.100074 -0.000524005 -1.41253e-11 -3.77689e-12 -1.22254e-10 4.83078e-06 2.60524e-09 1.55748e-08
2086 2 0.002 -0.0379366 -0.0980855 -0.000483042 -2.62096e-12 -1.57695e-11 -3.60609e-11 4.00662e-06 2.70012e-09 1.00873e-08
2087 2 0.002 -0.0378884 -0.094099 -3.14658e-05 2.45675e-11 -2.50032e-11 8.74919e-11 9.44526e-06 1.63181e-09 1.49589e-08
2009 2 0.002 -0.0413823 -0.0960919 8.55343e-05 1.42993e-11 -2.51277e-11 6.50533e-11 9.93608e-06 1.24926e-09 1.4962e-08
92 1 0.015 -0.0194908 -0.0961402 -0.00443862 2.08999e-09 1.1986e-09 5.55659e-11 -7.59804e-06 0 1.62391e-06
2475 2 0.002 -0.0206378 -0.104175 -0.000256825 -1.0861e-11 2.89359e-11 -1.98478e-12 1.35348e-05 4.74892e-09 5.57141e-08
2240 2 0.002 -0.0310079 -0.10212 -0.000891212 -5.38992e-12 -5.99336e-12 -3.93296e-11 5.92978e-06 7.56269e-09 6.82193e-09
2319 2 0.002 -0.0275043 -0.100157 -0.00115471 5.38558e-12 2.36717e-11 8.95794e-11 9.20609e-06 9.4571e-09 1.5484e-08
2318 2 0.002 -0.0275527 -0.104142 -0.000609432 -1.12202e-11 -2.58655e-12 -7.27815e-11 7.39036e-06 6.24614e-09 8.67358e-09
2396 2 0.002 -0.0241245 -0.10614 -1.9915e-05 -1.76159e-11 2.22347e-11 2.74222e-12 1.04746e-05 3.29233e-09 2.62348e-08
2556 2 0.002 -0.0170964 -0.0982364 -0.00136681 1.59367e-11 1.86779e-11 -4.34382e-11 1.98663e-05 4.928e-08 7.34338e-08
2477 2 0.002 -0.0204922 -0.0963321 -0.00258098 2.57745e-11 3.14046e-11 -4.38941e-11 3.96197e-05 7.65066e-08 8.72639e-07
2398 2 0.002 -0.0240051 -0.0982223 -0.0017342 1.02586e-11 2.23914e-11 -3.47677e-11 1.71367e-05 3.75381e-08 5.61391e-08
2476 2 0.002 -0.0205603 -0.100247 -0.00136307 4.88706e-12 2.34413e-11 -4.72339e-11 1.78229e-05 3.23317e-08 7.97467e-08
2241 2 0.002 -0.0309736 -0.0981191 -0.00101795 -1.41295e-14 -8.45829e-13 -2.14221e-11 3.96722e-06 5.57834e-09 1.36415e-08
2320 2 0.002 -0.0274792 -0.0961602 -0.00145809 2.04547e-11 1.59244e-11 4.35741e-11 1.2646e-05 9.02069e-09 3.29672e-08
2397 2 0.002 -0.0240545 -0.10219 -0.000923176 -3.75907e-12 4.1617e-11 7.60491e-11 1.13146e-05 1.0291e-08 2.73079e-08
2555 2 0.002 -0.0171668 -0.102183 -0.000374195 -9.18089e-12 2.92611e-11 4.72323e-12 1.49262e-05 7.72902e-09 5.26094e-08
2242 2 0.002 -0.0309471 -0.0941208 -0.00095713 2.26765e-11 -1.50523e-13 4.86735e-11 5.44432e-06 2.32317e-09 2.88967e-08
2399 2 0.002 -0.0239964 -0.0942241 -0.00209447 1.54967e-11 2.09242e-11 -5.69665e-11 2.21482e-05 5.43263e-08 1.12398e-07
2557 2 0.002 -0.0170533 -0.0942536 -0.00207935 1.87404e-11 3.27599e-11 1.93262e-11 3.03066e-05 5.37044e-08 3.38334e-07
2239 2 0.002 -0.0310514 -0.106115 -0.000588007 -3.20409e-11 2.47878e-12 1.26035e-10 3.03193e-06 7.12434e-09 7.40795e-09
2317 2 0.002 -0.0276173 -0.108109 5.98777e-05 -1.89825e-11 5.54045e-12 1.46776e-12 8.38046e-06 4.11138e-09 1.14452e-08
2635 2 0.002 -0.0137247 -0.100142 -0.000172094 -1.40927e-11 2.76052e-11 6.50713e-11 1.48895e-05 4.77626e-09 4.01498e-08
2636 2 0.002 -0.0136867 -0.0961565 -0.000832889 2.32134e-11 9.30779e-12 -4.32984e-11 1.76437e-05 1.42198e-08 4.96365e-08
2716 2 0.002 -0.0102998 -0.0940729 -0.000102014 2.01588e-11 -2.38119e-12 -3.33662e-11 1.48682e-05 2.70508e-09 3.3601e-08
3585 2 0.002 0.027679 -0.107862 -0.000131214 4.66553e-11 4.11637e-11 -5.37077e-11 5.13137e-06 3.15217e-09 6.56388e-08
3741 2 0.002 0.0345974 -0.107886 -0.00013055 5.34725e-11 3.85941e-11 -5.41367e-11 1.18962e-05 1.56756e-09 2.8041e-08
4967 2 0.002 0.0936041 -0.0939735 -0.000445059 -6.51223e-15 1.2161e-11 -4.72385e-11 3.71699e-06 1.43149e-10 8.91589e-09
4966 2 0.002 0.0935927 -0.0979811 -0.00017235 -2.85458e-12 1.15848e-11 2.89701e-11 2.06115e-06 4.87953e-10 9.96975e-09
4902 2 0.002 0.0901424 -0.0959702 3.4288e-05 5.67857e-12 1.47784e-11 1.00053e-10 3.39516e-06 1.78356e-10 1.02668e-08
5091 2 0.002 0.100496 -0.101996 -0.000353576 -6.31054e-12 -5.05062e-12 -5.29817e-11 8.95543e-07 5.49195e-09 6.01412e-09
5153 2 0.002 0.103994 -0.100043 -0.000743027 -2.09528e-12 1.47271e-11 9.84622e-11 3.81891e-06 3.49009e-08 2.02782e-08
5213 2 0.002 0.107532 -0.0981658 -0.00137239 4.22134e-12 -3.84395e-11 -6.41303e-11 2.44373e-05 1.00502e-07 5.07273e-07
5030 2 0.002 0.0970634 -0.0959952 -0.000671389 2.94392e-12 1.36196e-11 5.27173e-11 7.32341e-06 9.75697e-10 9.62448e-09
5092 2 0.002 0.100528 -0.0980208 -0.000831958 -3.40743e-12 4.88306e-12 3.14022e-11 7.15238e-06 7.21234e-09 1.15263e-08
5093 2 0.002 0.100544 -0.0940324 -0.00116407 -3.0171e-12 -5.91026e-12 -6.38591e-11 1.0165e-05 3.56079e-09 2.23043e-08
5154 2 0.002 0.10403 -0.0960891 -0.00135918 -6.05785e-12 -3.11342e-11 -1.31207e-10 1.36974e-05 3.97609e-08 4.18164e-08
5214 2 0.002 0.107526 -0.0941442 -0.00170273 1.75784e-11 -4.99683e-11 -2.28155e-11 2.5064e-05 4.05055e-08 5.00605e-07
5029 2 0.002 0.097043 -0.0999904 -0.000351598 -6.76202e-12 4.759e-12 -4.09191e-12 1.61353e-06 2.42764e-09 8.92228e-09
68 1 0.015 0.109078 -0.0977197 -0.00300032 -2.14555e-09 -3.0673e-09 4.66101e-11 -6.04174e-06 0 9.95377e-07
5090 2 0.002 0.100466 -0.105998 -7.20408e-05 -2.63411e-12 4.84791e-13 2.99548e-12 -9.19741e-08 2.45166e-09 1.57247e-09
5028 2 0.002 0.0970208 -0.10399 -4.89156e-05 -5.83221e-12 3.35893e-12 5.49708e-12 5.63388e-07 1.58657e-09 5.53558e-09
5271 2 0.002 0.110946 -0.096087 -0.000954406 1.90264e-10 -1.09748e-10 -8.11412e-10 6.44106e-06 6.84822e-08 1.54852e-07
638 2 0.002 -0.110811 -0.0919861 -0.000197295 2.87616e-12 1.77193e-11 -1.13789e-11 8.90926e-06 1.37073e-09 1.99414e-08
639 2 0.002 -0.110802 -0.0879823 -0.000135036 1.30594e-11 2.45772e-11 5.92286e-11 4.70132e-06 1.32338e-09 2.0893e-08
582 2 0.002 -0.114291 -0.0899937 -1.65853e-05 4.53591e-12 1.25677e-11 -9.77014e-12 6.50802e-06 1.61045e-09 8.53924e-09
881 2 0.002 -0.0968016 -0.0839252 -0.0013429 2.98277e-11 6.84117e-12 -5.04332e-11 1.89682e-05 2.85913e-08 7.31751e-08
880 2 0.002 -0.0968117 -0.0879212 -0.00160674 2.02913e-11 -2.33293e-12 -3.84479e-11 1.97264e-05 4.0459e-08 8.2386e-08
696 2 0.002 -0.107315 -0.0899715 -0.000465875 4.70728e-12 2.77519e-11 -5.09636e-11 3.46798e-06 8.33154e-10 2.54979e-08
697 2 0.002 -0.107305 -0.0859746 -0.000366446 9.82307e-12 3.42961e-11 -4.50177e-11 2.65511e-06 6.89012e-10 2.74866e-08