ITEM: TIMESTEP
100000
ITEM: NUMBER OF ATOMS
5843
ITEM: BOX BOUNDS ff ff ff
-2.5000000000000000e-01 2.5000000000000000e-01
-2.5000000000000000e-01 2.5000000000000000e-01
-1.0000000000000001e-01 1.0000000000000001e-01
ITEM: ATOMS id type radius x y z fx fy fz v_pressure c_bendingE c_stretchingE
2545 2 0.002 -0.0173251 -0.141976 -0.00026762 1.05817e-06 -4.82611e-07 3.79232e-06 3.07051e-06 2.60473e-09 9.41361e-09
2703 2 0.002 -0.010396 -0.145981 -0.000199527 1.4928e-07 -1.95864e-07 1.81954e-06 6.56967e-06 2.24425e-09 1.06252e-08
2862 2 0.002 -0.0034746 -0.145981 -0.000199093 -1.42457e-07 -1.4424e-07 2.15093e-06 3.29691e-06 2.52728e-09 1.08181e-08
2863 2 0.002 -0.00349055 -0.141967 -0.000594658 -1.93682e-07 -9.07292e-07 -3.86536e-06 2.65453e-06 1.21934e-09 1.69569e-08
2783 2 0.002 -0.00694348 -0.143975 -0.000416783 -1.21894e-08 -9.76246e-08 2.15753e-06 2.70706e-06 2.52166e-09 2.00581e-08
2704 2 0.002 -0.010411 -0.141964 -0.00060672 1.68674e-07 -9.23966e-07 -3.65158e-06 7.84451e-06 1.32587e-09 1.63949e-08
2624 2 0.002 -0.0138632 -0.143978 -0.000284386 4.44176e-07 -4.37615e-07 7.39859e-07 3.43813e-06 2.53372e-09 1.19869e-08
2942 2 0.002 -1.92799e-05 -0.143977 -0.000244634 -2.17996e-07 -7.37236e-07 -2.52126e-06 2.32658e-06 2.73706e-09 1.23781e-08
3022 2 0.002 0.00344435 -0.141981 -0.000128383 1.1138e-07 -1.97256e-06 -8.76245e-06 3.16092e-06 3.30024e-09 3.63295e-08
3655 2 0.002 0.0311896 -0.141979 -0.000252467 6.8981e-07 -9.57402e-07 1.05193e-06 6.3687e-06 1.97302e-09 8.97014e-09
3340 2 0.002 0.0173055 -0.141991 -9.80255e-05 -3.38165e-07 -1.83397e-06 -1.24416e-06 6.17387e-06 1.19111e-09 6.78343e-09
3498 2 0.002 0.0242549 -0.141983 -0.000252595 4.82894e-07 -1.8634e-06 -3.0514e-06 2.84472e-06 9.27452e-10 6.36951e-09
3419 2 0.002 0.0207845 -0.143987 -9.44959e-05 7.13602e-08 -1.05154e-06 7.92714e-07 4.32661e-06 7.99456e-10 2.93678e-09
3576 2 0.002 0.027718 -0.143984 -0.000137089 4.0098e-07 -9.94768e-07 -7.95027e-07 5.09526e-06 1.12369e-09 5.19107e-09
63 1 0.015 -0.0572113 -0.134805 -0.00109073 3.05844e-05 -5.69023e-06 6.31116e-06 -1.92992e-06 0 4.21399e-07
1622 2 0.002 -0.0588958 -0.133986 -7.60771e-05 -1.83744e-06 2.5257e-07 -1.60638e-05 1.93004e-06 6.1787e-09 1.1724e-08
1697 2 0.002 -0.0554446 -0.131989 -9.84228e-05 -2.4622e-06 -4.55284e-07 1.18249e-06 7.54369e-06 1.11894e-08 4.43139e-07
2547 2 0.002 -0.0173611 -0.133942 -0.000840811 1.07046e-06 -1.02609e-06 2.13032e-06 9.53873e-06 2.11561e-09 1.74377e-08
2468 2 0.002 -0.0208093 -0.131951 -0.000377754 2.96486e-07 -2.2864e-06 -2.10389e-06 4.43935e-06 1.77068e-09 1.54767e-08
2548 2 0.002 -0.0173766 -0.129923 -0.00103308 3.57553e-07 -8.90095e-07 9.63292e-07 1.17125e-05 4.12502e-09 2.57229e-08
2549 2 0.002 -0.0173877 -0.125912 -0.00101544 -1.34766e-06 -2.54204e-07 -2.9208e-06 1.28784e-05 5.93501e-09 3.01564e-08
2546 2 0.002 -0.0173427 -0.137959 -0.000560346 4.53768e-07 -1.52725e-06 -5.57502e-06 3.82649e-06 1.18385e-09 1.16869e-08
2467 2 0.002 -0.0208023 -0.135966 -0.000259273 1.0687e-06 -1.99858e-06 -9.14838e-07 3.82208e-06 1.07111e-09 1.3429e-08
2469 2 0.002 -0.0208156 -0.127938 -0.000367211 5.033e-07 -2.19282e-06 3.2357e-06 9.83194e-06 1.71015e-09 1.69355e-08
2466 2 0.002 -0.0207929 -0.139979 -0.000104259 1.49079e-06 -1.20454e-06 4.31156e-06 5.87402e-06 1.00206e-09 7.73172e-09
85 1 0.015 -0.00911012 -0.126128 -0.00487636 -3.09502e-05 -4.70302e-05 -1.81866e-06 -5.7779e-06 0 1.21374e-06
2708 2 0.002 -0.0105467 -0.125869 -0.00276622 -3.23874e-07 7.37341e-07 2.3135e-06 3.4954e-05 5.96094e-08 6.44218e-07
2867 2 0.002 -0.00356463 -0.125907 -0.00219503 6.35031e-07 7.77014e-07 -3.16644e-06 1.88972e-05 3.40838e-08 5.8511e-08
2627 2 0.002 -0.0139277 -0.131922 -0.00150428 6.60429e-09 -5.25218e-07 -1.81228e-06 1.28129e-05 5.96985e-09 2.87757e-08
2628 2 0.002 -0.0139566 -0.127897 -0.00182279 -6.63605e-07 2.9158e-08 -1.06805e-06 1.74405e-05 2.55572e-08 5.61844e-08
2706 2 0.002 -0.0104594 -0.133931 -0.00164078 -3.12032e-08 -4.36666e-07 -2.52405e-06 1.30257e-05 5.28393e-09 3.62888e-08
2707 2 0.002 -0.0104987 -0.129909 -0.00223227 -4.12992e-07 -2.47848e-08 -1.73785e-06 1.88092e-05 4.35902e-08 6.14736e-08
2786 2 0.002 -0.00701194 -0.131928 -0.00209423 -2.22001e-07 -2.9909e-07 -3.13748e-06 8.46388e-06 1.83664e-08 6.72911e-08
2787 2 0.002 -0.00704586 -0.127902 -0.00279213 -2.79722e-07 6.61804e-07 1.28383e-06 3.12843e-05 5.01869e-08 4.68219e-07
2866 2 0.002 -0.00355506 -0.129929 -0.00210804 -3.73141e-07 3.83068e-07 1.70748e-06 8.56835e-06 1.50154e-08 7.16961e-08
2946 2 0.002 -8.6333e-05 -0.127939 -0.00171331 3.22791e-07 -2.60035e-07 1.49928e-07 1.24174e-05 5.69198e-09 3.04345e-08
2784 2 0.002 -0.00696114 -0.139959 -0.000909619 -7.87692e-08 -1.45845e-07 1.96653e-06 4.64516e-06 1.34955e-09 2.44164e-08
2625 2 0.002 -0.0138773 -0.139959 -0.000670097 7.26661e-07 -5.96969e-07 8.44815e-07 7.76581e-06 1.38671e-09 1.44615e-08
2705 2 0.002 -0.0104315 -0.137948 -0.0010987 3.67026e-07 -3.28948e-07 6.32768e-07 9.74102e-06 1.97047e-09 2.37138e-08
2785 2 0.002 -0.00698352 -0.135945 -0.00146356 -1.27528e-07 -3.67791e-08 5.07838e-07 5.95772e-06 3.17738e-09 3.79809e-08
2864 2 0.002 -0.00350781 -0.137958 -0.00109355 -6.70183e-07 3.0354e-07 5.22022e-06 2.5269e-06 1.36606e-09 2.90325e-08
2626 2 0.002 -0.0139002 -0.135942 -0.00109115 1.03835e-06 -2.23696e-07 3.77388e-06 9.8242e-06 1.94337e-09 1.9365e-08
2865 2 0.002 -0.003531 -0.133947 -0.00162644 -1.53886e-07 -5.67157e-07 -3.50789e-06 4.21811e-06 4.60406e-09 4.29195e-08
2945 2 0.002 -7.61474e-05 -0.131952 -0.0015165 -1.7428e-07 -6.68655e-07 -1.21658e-06 5.86108e-06 3.46261e-09 3.89028e-08
2944 2 0.002 -5.49872e-05 -0.135963 -0.00109939 -7.60126e-07 -4.59007e-07 2.16012e-06 2.56389e-06 1.19832e-09 3.32723e-08
2943 2 0.002 -3.23405e-05 -0.139969 -0.000635362 -8.43224e-07 -4.45351e-07 2.71964e-06 3.0471e-06 8.69524e-10 2.63322e-08
3023 2 0.002 0.00341939 -0.137975 -0.00056396 -9.03814e-07 -1.19929e-06 1.51965e-06 3.06932e-06 1.83971e-09 2.93948e-08
3103 2 0.002 0.00687798 -0.135988 -0.000550237 -4.02854e-07 -2.68769e-06 -3.4566e-06 4.24548e-06 1.53643e-09 1.97385e-08
3104 2 0.002 0.00687041 -0.131984 -0.000909578 -9.48659e-08 -2.31824e-06 2.32763e-06 3.69612e-06 2.15611e-09 1.26e-08
3024 2 0.002 0.00340106 -0.133972 -0.000998759 -2.61212e-07 -1.72534e-06 -2.04634e-06 2.2979e-06 1.67989e-09 2.59129e-08
3184 2 0.002 0.0103496 -0.12999 -0.000862039 7.48733e-07 -3.50298e-06 5.99651e-07 0.00583379 2.44547e-09 6.20956e-09
3263 2 0.002 0.01383 -0.131994 -0.000746033 5.677e-07 -4.30833e-06 -2.09407e-07 5.7169e-06 1.45443e-09 5.68423e-09
3183 2 0.002 0.0103497 -0.133993 -0.000624285 -1.26036e-07 -3.34319e-06 -9.61806e-07 6.83047e-06 1.58739e-09 8.49412e-09
3025 2 0.002 0.00339169 -0.129965 -0.00127949 -2.8518e-07 -1.26048e-06 5.45163e-06 9.00027e-06 2.86096e-09 1.89537e-08
3026 2 0.002 0.00339049 -0.125957 -0.00126944 1.18226e-06 -1.17776e-06 -6.5307e-07 8.99083e-06 3.19883e-09 1.48244e-08
3105 2 0.002 0.00686918 -0.127977 -0.00103599 1.24937e-06 -2.44724e-06 -4.53268e-06 6.76518e-06 3.04131e-09 8.81917e-09
3264 2 0.002 0.013834 -0.127991 -0.000868091 1.45311e-06 -4.43528e-06 2.29872e-06 0.00501625 2.67572e-09 5.04143e-09
3185 2 0.002 0.010354 -0.125986 -0.000843799 1.73292e-06 -3.2897e-06 -1.14034e-06 5.36131e-06 3.32158e-09 5.6278e-09
3102 2 0.002 0.00689261 -0.139994 -6.20397e-05 -9.88332e-07 -1.63047e-06 1.9881e-06 5.23237e-06 1.15196e-08 3.46745e-08
3182 2 0.002 0.0103546 -0.137996 -0.000224027 -7.51805e-07 -2.16502e-06 5.20614e-06 8.24088e-06 1.99543e-09 1.39764e-08
3262 2 0.002 0.0138286 -0.135993 -0.000445116 -2.22767e-07 -3.69803e-06 -1.1648e-06 6.53235e-06 8.45572e-10 6.8718e-09
3261 2 0.002 0.0138308 -0.139993 -7.13501e-05 -6.45744e-07 -2.47626e-06 5.40597e-07 7.16172e-06 4.02858e-09 8.41058e-09
3501 2 0.002 0.0242725 -0.129974 -0.00122859 2.05805e-06 -5.27212e-06 9.11267e-07 0.00688211 1.28872e-09 1.06167e-08
3579 2 0.002 0.027745 -0.131966 -0.00124432 2.21898e-06 -4.75072e-06 -1.86201e-06 7.77058e-06 8.65674e-10 1.26355e-08
3423 2 0.002 0.0207968 -0.127982 -0.00111389 1.80142e-06 -5.48177e-06 -7.09061e-07 0.00582388 1.92957e-09 8.0435e-09
3421 2 0.002 0.0207861 -0.135983 -0.000647068 7.52724e-07 -4.02263e-06 2.56065e-07 6.15479e-06 2.85071e-10 7.53021e-09
3499 2 0.002 0.02426 -0.137978 -0.000583282 9.67685e-07 -3.26816e-06 -1.25534e-06 6.32448e-06 2.33237e-10 7.4287e-09
3577 2 0.002 0.0277285 -0.139974 -0.000454408 1.05033e-06 -2.24535e-06 -1.10217e-06 6.18603e-06 6.18714e-10 7.23021e-09
3343 2 0.002 0.0173136 -0.12999 -0.000904745 1.1853e-06 -5.11693e-06 -2.92143e-06 0.0054138 1.60546e-09 6.25004e-09
3344 2 0.002 0.0173196 -0.125988 -0.000932873 1.94051e-06 -5.02827e-06 5.75522e-07 2.48133e-06 2.84775e-09 5.83164e-09
3422 2 0.002 0.0207915 -0.131984 -0.000937583 1.33787e-06 -5.02815e-06 1.61192e-07 0.00609319 8.14134e-10 8.10371e-09
3500 2 0.002 0.0242666 -0.133977 -0.000930474 1.5079e-06 -4.50924e-06 -5.67513e-07 0.00672225 4.80462e-10 9.22997e-09
3578 2 0.002 0.0277374 -0.135971 -0.000850959 1.84209e-06 -2.97143e-06 4.81292e-06 7.11813e-06 4.73227e-10 9.76318e-09
3502 2 0.002 0.0242773 -0.125968 -0.00139183 2.16436e-06 -5.46699e-06 1.55349e-06 0.00703559 2.5204e-09 1.17742e-08
3580 2 0.002 0.0277504 -0.127959 -0.00157864 2.60293e-06 -4.97828e-06 2.96827e-06 8.40944e-06 2.00514e-09 1.5653e-08
3342 2 0.002 0.0173092 -0.13399 -0.000684727 6.78476e-07 -4.13047e-06 3.99596e-06 5.95372e-06 6.18614e-10 6.84305e-09
3656 2 0.002 0.0312025 -0.137969 -0.000667982 1.69784e-06 -1.98506e-06 2.24725e-06 7.5506e-06 7.06127e-10 1.1815e-08
3657 2 0.002 0.0312118 -0.133962 -0.00113877 2.48168e-06 -3.51376e-06 -8.27785e-07 8.46396e-06 5.98299e-10 1.54237e-08
3658 2 0.002 0.0312194 -0.129953 -0.00160546 2.85308e-06 -4.3436e-06 -1.65294e-07 3.18838e-06 1.29189e-09 1.99625e-08
3341 2 0.002 0.0173062 -0.137988 -0.000370674 -9.26279e-08 -3.44121e-06 -1.86245e-06 6.23801e-06 6.70279e-10 7.07564e-09
3420 2 0.002 0.0207822 -0.139983 -0.000338135 3.62926e-07 -2.45202e-06 2.54252e-06 5.78711e-06 4.358e-10 5.92931e-09
3659 2 0.002 0.0312239 -0.125939 -0.00200877 2.71425e-06 -4.38565e-06 3.44918e-06 5.52188e-06 3.39604e-09 2.61372e-08
3734 2 0.002 0.0346708 -0.135964 -0.000900738 2.42767e-06 -1.92854e-06 1.30837e-06 9.13711e-06 6.80576e-10 2.19055e-08
3889 2 0.002 0.0415823 -0.135965 -0.000795311 2.40791e-06 -4.91934e-07 3.63313e-06 4.91833e-06 1.3296e-09 2.72203e-08
3966 2 0.002 0.0450421 -0.133966 -0.000929182 2.81129e-06 -4.50512e-07 1.68644e-06 3.4097e-06 9.50216e-10 3.051e-08
3733 2 0.002 0.0346593 -0.139976 -0.000371222 1.16756e-06 -1.02016e-06 -3.9315e-07 8.49545e-06 3.76551e-09 1.83991e-08
3811 2 0.002 0.0381205 -0.137973 -0.000560653 1.93816e-06 -1.17593e-06 -1.00012e-06 1.03008e-05 3.9292e-09 3.53001e-08
3888 2 0.002 0.0415704 -0.139978 -0.000262752 1.00453e-06 -7.36279e-07 -1.94626e-06 8.54562e-06 3.61454e-09 1.74414e-08
3965 2 0.002 0.0450361 -0.137978 -0.00038857 1.44133e-06 -4.44897e-07 -6.78446e-07 4.65328e-06 4.06975e-09 2.2321e-08
3891 2 0.002 0.0416054 -0.127934 -0.00204877 3.79822e-06 -2.42259e-06 -2.67556e-06 7.09291e-06 3.12152e-09 5.56151e-08
3736 2 0.002 0.0346887 -0.127937 -0.00201841 3.1762e-06 -3.53564e-06 1.50108e-06 6.14213e-06 2.10147e-09 3.4833e-08
3813 2 0.002 0.0381445 -0.129942 -0.00179601 3.57114e-06 -2.60736e-06 -1.11822e-07 6.27245e-06 1.67689e-09 4.39141e-08
3890 2 0.002 0.0415934 -0.131952 -0.0014049 3.49664e-06 -1.41229e-06 8.94862e-07 3.82645e-06 1.16745e-09 3.88434e-08
3967 2 0.002 0.0450502 -0.12995 -0.00150687 3.75412e-06 -1.10468e-06 -2.79901e-07 2.9042e-06 1.43382e-09 3.78748e-08
3735 2 0.002 0.0346808 -0.131953 -0.00146176 3.14062e-06 -3.2133e-06 -9.07513e-07 3.44924e-06 7.96288e-10 2.69377e-08
3812 2 0.002 0.0381334 -0.133959 -0.00117151 3.07424e-06 -1.69127e-06 1.34093e-06 1.07366e-05 6.14214e-10 3.47744e-08
3968 2 0.002 0.0450636 -0.125931 -0.00208291 3.67926e-06 -1.49246e-06 -6.11704e-07 4.75631e-06 4.30501e-09 4.83739e-08
3814 2 0.002 0.0381543 -0.125921 -0.00244375 3.06517e-06 -2.93082e-06 5.56307e-07 1.6087e-05 5.46625e-09 6.33974e-08
4042 2 0.002 0.0484954 -0.131965 -0.000936129 3.10865e-06 -2.57496e-07 1.17992e-06 2.39978e-06 1.41713e-09 2.67521e-08
4041 2 0.002 0.0484951 -0.13598 -0.000426323 1.90688e-06 -5.55443e-07 -3.31104e-06 2.41548e-06 4.57618e-09 2.6828e-08
4043 2 0.002 0.048504 -0.12795 -0.00141635 3.6824e-06 -5.65663e-07 8.23611e-07 2.72813e-06 1.75614e-09 2.99154e-08
4119 2 0.002 0.0519565 -0.125954 -0.00112831 3.70711e-06 -4.12529e-07 -5.64967e-07 3.2558e-06 1.65456e-09 2.32295e-08
4118 2 0.002 0.05195 -0.129965 -0.00080808 3.37223e-06 -2.8721e-07 -1.65066e-07 4.22966e-06 1.39893e-09 1.7775e-08
4194 2 0.002 0.0554068 -0.127971 -0.000517721 3.57949e-06 -3.5611e-07 -2.61453e-06 7.7333e-06 9.73511e-10 1.71671e-08
4117 2 0.002 0.0519468 -0.133979 -0.000421483 2.09072e-06 -1.99391e-07 -1.27227e-07 2.61675e-06 3.74654e-09 1.80791e-08
4192 2 0.002 0.0554148 -0.135986 -0.00011461 9.32667e-07 -3.7512e-07 -2.9833e-06 1.52219e-06 3.3006e-09 4.84937e-09
4193 2 0.002 0.0554064 -0.131976 -0.000300311 2.03469e-06 -6.80792e-08 3.01459e-06 2.98782e-06 2.63836e-09 8.56011e-09
4269 2 0.002 0.058861 -0.125986 -0.00014109 2.56514e-06 -2.85943e-08 3.23731e-06 6.98123e-06 1.89534e-09 1.51547e-08
4267 2 0.002 0.0588779 -0.13399 2.27638e-05 1.13745e-06 -1.58987e-07 -1.20625e-06 2.19587e-06 4.87339e-09 5.01533e-09
4268 2 0.002 0.0588667 -0.129989 3.30236e-05 2.50336e-06 -2.14763e-07 -1.25459e-06 3.56947e-06 1.11952e-08 1.93781e-08
938 2 0.002 -0.093523 -0.109988 -0.000319582 9.36534e-07 -1.44816e-06 -3.17288e-06 1.60481e-06 3.39571e-09 1.09968e-08
1068 2 0.002 -0.0865948 -0.109993 -0.000337007 2.04546e-06 -1.97079e-06 -2.52102e-06 2.23934e-06 2.58465e-09 1.39211e-08
1002 2 0.002 -0.0900639 -0.111986 -0.000198239 1.10969e-06 -1.24601e-06 -5.64084e-07 2.13735e-06 3.25952e-09 4.95752e-09
2470 2 0.002 -0.0208142 -0.123936 -0.000160343 -1.11405e-06 -1.6384e-06 3.54706e-07 5.32519e-06 1.3316e-09 2.34042e-08
2550 2 0.002 -0.0173764 -0.121915 -0.000681797 -2.66715e-06 8.41348e-07 -5.09087e-06 1.29893e-05 3.67403e-09 3.74054e-08
2551 2 0.002 -0.0173579 -0.117926 -0.000155028 -2.60223e-06 1.26033e-06 -1.66322e-06 1.11986e-05 2.03913e-09 2.50403e-08
2630 2 0.002 -0.0139303 -0.119897 -0.00102797 -9.79119e-07 9.36663e-07 3.30985e-06 1.43089e-05 6.34033e-09 4.14791e-08
2788 2 0.002 -0.00704634 -0.123864 -0.00257909 -1.95872e-07 1.15424e-06 -1.69266e-06 3.14655e-05 4.84388e-08 4.51303e-07
2789 2 0.002 -0.00701368 -0.119894 -0.00159509 -1.03027e-09 2.66827e-06 -5.87949e-06 1.77442e-05 1.5379e-08 6.82956e-08
2868 2 0.002 -0.00355661 -0.121908 -0.00174744 6.24424e-07 1.04722e-06 -2.13692e-06 1.74666e-05 1.28534e-08 6.41884e-08
2710 2 0.002 -0.0104621 -0.1179 -0.00101981 -1.31094e-06 3.14092e-06 -5.90785e-06 1.4515e-05 5.32793e-09 4.79303e-08
2629 2 0.002 -0.0139585 -0.123887 -0.0016688 -6.36221e-07 6.18562e-07 1.967e-06 1.84323e-05 2.4056e-08 7.33098e-08
2709 2 0.002 -0.0105009 -0.121873 -0.00191293 -3.79351e-07 1.10684e-06 2.20949e-06 2.02434e-05 4.12015e-08 7.88067e-08
2947 2 0.002 -8.58074e-05 -0.123934 -0.00153393 1.59138e-06 3.44926e-07 -5.0416e-06 1.27252e-05 5.0122e-09 3.04947e-08
2869 2 0.002 -0.00352977 -0.117935 -0.000981519 5.53454e-07 3.95827e-07 2.3913e-06 1.32569e-05 3.72151e-09 3.49323e-08
2948 2 0.002 -7.10596e-05 -0.119952 -0.00101131 1.14126e-06 -5.02125e-07 3.13923e-06 1.23376e-05 2.71873e-09 3.54464e-08
2790 2 0.002 -0.006985 -0.115926 -0.000698386 -2.47207e-07 1.82166e-06 -1.43409e-06 1.29389e-05 3.2328e-09 3.82258e-08
2631 2 0.002 -0.0138996 -0.115915 -0.000302841 -1.85265e-06 1.72467e-06 1.40914e-06 1.17421e-05 2.11711e-09 3.05773e-08
2711 2 0.002 -0.0104325 -0.113922 -0.000194364 -1.25665e-06 1.95679e-06 6.73223e-07 5.87908e-06 2.05888e-09 3.62141e-08
2870 2 0.002 -0.00350471 -0.113968 -0.00020592 7.39997e-07 -1.06206e-07 5.03233e-06 1.0707e-05 1.70162e-09 2.08407e-08
2949 2 0.002 -4.51277e-05 -0.115987 -0.000318383 1.97058e-06 3.67467e-07 -8.20251e-07 5.44789e-06 1.269e-09 2.52971e-08
3107 2 0.002 0.00688785 -0.120003 -0.000366799 2.99419e-06 -6.06362e-07 -5.53566e-06 7.91151e-06 2.0716e-09 1.56315e-08
3266 2 0.002 0.0138585 -0.120021 -0.000232938 2.66189e-06 -2.89686e-06 -1.34003e-06 5.88753e-06 4.45734e-09 6.77533e-09
3186 2 0.002 0.0103645 -0.121998 -0.000506338 2.5277e-06 -2.69575e-06 -1.00404e-06 5.84593e-06 3.36799e-09 7.28412e-09
3027 2 0.002 0.00339867 -0.121965 -0.000931296 1.31676e-06 -1.60458e-06 6.19339e-06 4.74547e-06 2.39757e-09 2.00984e-08
3106 2 0.002 0.00687478 -0.123977 -0.000863015 1.61097e-06 -2.48091e-06 4.64286e-06 3.43446e-06 2.94621e-09 9.42699e-09
3265 2 0.002 0.0138421 -0.123993 -0.000715106 2.23993e-06 -4.02572e-06 4.49607e-07 4.86688e-06 3.71682e-09 5.10648e-09
3028 2 0.002 0.00341711 -0.118 -0.000326977 2.79697e-06 2.91818e-07 -4.00706e-06 5.03876e-06 1.37012e-09 2.68295e-08
3583 2 0.002 0.0277674 -0.115969 -0.00133718 -6.75086e-08 -2.8697e-06 -1.76427e-06 2.73455e-06 2.46724e-09 3.36784e-08
3584 2 0.002 0.0277805 -0.112018 -0.000754641 -1.74767e-07 -2.03037e-06 4.09558e-06 3.459e-06 1.8253e-09 3.1867e-08
3345 2 0.002 0.0173309 -0.121998 -0.000673423 2.29034e-06 -4.14206e-06 -9.2873e-07 1.71774e-06 3.30103e-09 6.68006e-09
3424 2 0.002 0.0208035 -0.123981 -0.00107759 1.99208e-06 -5.14408e-06 -7.54528e-07 2.86643e-06 2.80087e-09 8.3811e-09
3426 2 0.002 0.0208384 -0.116046 -0.000201458 1.76022e-06 -2.49106e-06 5.93771e-07 2.63094e-06 2.21015e-09 2.3708e-08
3503 2 0.002 0.0242832 -0.121967 -0.0013292 1.73544e-06 -4.86234e-06 -9.75471e-07 3.70966e-06 3.00416e-09 1.41581e-08
3504 2 0.002 0.0242952 -0.117988 -0.000998923 7.36916e-07 -3.29881e-06 -3.36406e-06 2.09072e-06 2.16899e-09 2.23858e-08
3505 2 0.002 0.0243127 -0.114035 -0.000466761 -3.36159e-07 -1.22074e-06 -4.29589e-06 3.01148e-06 1.14638e-09 3.05007e-08
3581 2 0.002 0.0277542 -0.123948 -0.0017592 1.48036e-06 -5.24257e-06 -4.12804e-06 9.2725e-06 3.80224e-09 1.98982e-08
3582 2 0.002 0.0277569 -0.119946 -0.00169972 1.80584e-06 -4.66051e-06 3.55605e-06 5.08506e-06 3.75558e-09 2.49924e-08
3425 2 0.002 0.0208165 -0.119998 -0.000762473 2.02693e-06 -4.1654e-06 1.45234e-07 2.12438e-06 2.55964e-09 1.23258e-08
3346 2 0.002 0.0173533 -0.118042 -0.000100568 2.02709e-06 -2.1447e-06 -4.50165e-06 2.18828e-06 3.75871e-09 1.14443e-08
3506 2 0.002 0.0243242 -0.110089 0.000112323 -7.6935e-07 5.18951e-07 -1.30844e-06 2.72028e-06 1.60262e-09 2.35728e-08
3660 2 0.002 0.0312259 -0.121921 -0.00224849 1.31181e-06 -4.5746e-06 -2.65294e-06 1.32396e-05 7.11186e-09 3.93831e-08
3661 2 0.002 0.0312252 -0.117917 -0.00216922 4.89657e-07 -3.8079e-06 4.06194e-08 1.44553e-05 8.94393e-09 4.3999e-08
3662 2 0.002 0.0312376 -0.113948 -0.00166569 -5.52663e-07 -2.72703e-06 1.09557e-06 1.44518e-05 4.908e-09 5.26814e-08
3663 2 0.002 0.0312465 -0.110004 -0.000893842 -1.74796e-06 -1.09882e-06 -2.39794e-07 5.84693e-06 2.86073e-09 3.20561e-08
109 1 0.015 0.0403145 -0.117521 -0.00628238 2.84578e-05 4.06891e-05 1.97718e-05 -6.63009e-06 0 2.16267e-06
3818 2 0.002 0.038157 -0.109936 -0.00160805 -1.48988e-06 -2.23481e-06 5.95072e-07 8.76461e-06 7.40017e-09 7.98909e-08
3894 2 0.002 0.041651 -0.115811 -0.00356931 4.09551e-07 -2.09551e-06 1.64694e-06 4.70903e-05 7.65604e-08 1.21928e-06
3895 2 0.002 0.041623 -0.111876 -0.00230926 -5.9373e-07 -9.64498e-07 -3.23726e-06 1.14644e-05 3.35554e-08 1.30142e-07
3971 2 0.002 0.0450876 -0.11387 -0.00239277 7.27489e-07 -9.32126e-07 -2.2593e-06 1.08407e-05 2.72502e-08 1.09538e-07
3972 2 0.002 0.0450706 -0.109921 -0.00147261 8.50101e-08 3.41256e-08 -6.44866e-06 4.90496e-06 9.40948e-09 4.88336e-08
3740 2 0.002 0.0347025 -0.111934 -0.00179789 -2.07504e-06 -1.09041e-06 -4.92809e-06 8.52794e-06 7.63986e-09 6.41415e-08
3737 2 0.002 0.0346925 -0.123915 -0.00253266 2.0409e-06 -4.12835e-06 -2.12458e-06 1.54449e-05 8.64349e-09 4.82139e-08
3739 2 0.002 0.0346937 -0.115885 -0.00265329 -8.26317e-07 -2.57127e-06 -2.93967e-06 2.23739e-05 3.40433e-08 1.10494e-07
3816 2 0.002 0.0381527 -0.117836 -0.00374513 8.9547e-07 -2.71799e-06 1.0625e-06 4.66013e-05 7.73494e-08 1.18072e-06
3817 2 0.002 0.0381627 -0.113865 -0.00275408 -9.01143e-07 -1.85672e-06 -1.7177e-06 2.60814e-05 6.46274e-08 1.27203e-07
3969 2 0.002 0.0450799 -0.121904 -0.00259555 2.49651e-06 -1.31446e-06 2.38261e-06 1.89441e-05 1.4989e-08 7.32803e-08
3738 2 0.002 0.0346905 -0.119885 -0.0028979 8.09955e-07 -3.61479e-06 -1.83124e-06 2.11934e-05 2.82407e-08 9.70368e-08
3815 2 0.002 0.0381596 -0.12189 -0.00311936 1.97784e-06 -2.93353e-06 1.15596e-06 2.32911e-05 5.06731e-08 1.04483e-07
3892 2 0.002 0.0416219 -0.123911 -0.00274355 2.8487e-06 -2.00344e-06 1.70162e-06 1.95173e-05 1.4873e-08 8.86583e-08
3893 2 0.002 0.041648 -0.119878 -0.00349675 1.63058e-06 -1.98123e-06 2.36908e-06 3.34804e-05 6.40404e-08 3.3341e-07
3970 2 0.002 0.0450926 -0.117871 -0.00279331 1.4714e-06 -1.43728e-06 1.25514e-06 2.28486e-05 5.04157e-08 8.78493e-08
4046 2 0.002 0.0485321 -0.115903 -0.00188745 1.35705e-06 -9.92954e-07 -1.98272e-07 1.50868e-05 8.22829e-09 4.53449e-08
4196 2 0.002 0.0554112 -0.119958 -0.000749086 3.10913e-06 -3.20182e-07 -2.00704e-06 3.99764e-06 1.87156e-09 1.20029e-08
4045 2 0.002 0.0485241 -0.119911 -0.00201383 2.53541e-06 -9.33113e-07 3.5293e-07 1.48551e-05 5.90071e-09 4.22945e-08
4047 2 0.002 0.0485288 -0.111923 -0.00137585 -1.70524e-07 -1.40114e-06 1.83884e-06 6.92331e-06 6.11377e-09 5.45002e-08
4044 2 0.002 0.0485142 -0.123931 -0.00181118 3.11661e-06 -6.65609e-07 2.21328e-06 6.52081e-06 3.7742e-09 3.83749e-08
4120 2 0.002 0.0519623 -0.121941 -0.00132212 3.38048e-06 -5.71091e-07 -9.90402e-07 5.29781e-06 2.44774e-09 2.37033e-08
4121 2 0.002 0.0519691 -0.117933 -0.00129946 1.73814e-06 -7.80204e-07 2.39407e-06 1.08413e-05 2.55495e-09 2.23343e-08
4122 2 0.002 0.0519736 -0.113939 -0.000995126 8.14191e-07 -9.57007e-07 1.34636e-06 5.44423e-06 2.8289e-09 3.2928e-08
4195 2 0.002 0.0554081 -0.123965 -0.00070645 2.89026e-06 -1.53938e-07 3.09974e-06 8.12188e-06 1.2851e-09 1.64771e-08
4197 2 0.002 0.0554151 -0.115956 -0.000566273 1.96232e-06 -5.18303e-07 -7.74315e-07 4.02822e-06 1.97942e-09 1.49191e-08
4123 2 0.002 0.0519744 -0.10997 -0.000438913 4.78632e-07 -7.87666e-07 -1.05117e-06 2.60138e-06 2.43758e-09 4.30438e-08
4198 2 0.002 0.0554177 -0.111974 -0.000129185 1.39874e-06 -3.2569e-07 -3.22468e-06 2.90285e-06 1.71303e-09 2.98104e-08
4270 2 0.002 0.0588613 -0.12198 -0.000256918 3.17255e-06 -2.90837e-07 -1.76572e-06 6.29421e-06 1.84538e-09 8.28759e-09
4271 2 0.002 0.0588649 -0.117973 -0.000193299 1.78762e-06 -6.64808e-07 4.67178e-06 2.96829e-06 2.49902e-09 6.08984e-09
4628 2 0.002 0.0762008 -0.119989 1.97246e-05 1.20274e-06 -5.06296e-07 3.77441e-07 3.59179e-06 6.58645e-10 2.05767e-09
4629 2 0.002 0.0762041 -0.115982 -3.3058e-06 7.10196e-07 -9.0822e-07 -3.67206e-06 4.35635e-06 9.79171e-10 3.11612e-09
4766 2 0.002 0.0831485 -0.112006 -0.000662334 3.97832e-09 -1.59853e-06 -7.98044e-07 2.95655e-06 1.08518e-08 2.53816e-08
4833 2 0.002 0.0866075 -0.110011 -0.000753486 -5.16436e-07 -1.88815e-06 3.22018e-06 4.07195e-06 1.33746e-08 1.73019e-08
4832 2 0.002 0.0866421 -0.11405 -0.000984852 3.94876e-07 -1.12639e-06 -2.65248e-06 8.10696e-06 2.46984e-08 4.15343e-07
66 1 0.015 0.08853 -0.116095 -0.00198723 2.43699e-05 3.06994e-06 5.76051e-06 -2.52647e-06 0 4.04663e-07
4699 2 0.002 0.0796738 -0.109983 -0.000276798 8.93136e-08 -1.73841e-06 2.43809e-06 6.82452e-06 1.10638e-09 1.16314e-08
4963 2 0.002 0.0935249 -0.109994 -0.000226353 -5.37914e-07 -7.03005e-07 1.52881e-06 4.37583e-06 2.63249e-09 3.36875e-09
4897 2 0.002 0.0900865 -0.116019 -0.000493977 1.80054e-06 -1.20748e-06 -1.11748e-05 2.25856e-06 2.23961e-08 2.28445e-08
4765 2 0.002 0.0831451 -0.116002 -0.000549364 6.96078e-07 -9.05417e-07 1.56913e-07 2.90648e-06 1.30624e-08 7.4663e-09
4764 2 0.002 0.0831377 -0.119997 -0.000206717 7.31261e-07 -5.15219e-07 -2.36567e-06 2.82999e-06 2.98789e-09 1.29361e-09
4698 2 0.002 0.0796733 -0.113986 -0.000315075 5.22068e-07 -1.26988e-06 -3.01587e-07 5.57199e-06 3.06532e-09 6.15884e-09
4898 2 0.002 0.090078 -0.112011 -0.000551957 -5.87597e-07 -1.24661e-06 3.99241e-06 6.05505e-06 1.84529e-08 6.44966e-09
4831 2 0.002 0.0866104 -0.118014 -0.000406324 8.4628e-07 1.67507e-07 2.27438e-06 2.6889e-06 1.82855e-08 1.82715e-09
4697 2 0.002 0.079671 -0.117988 -0.000206189 1.19592e-06 -5.94991e-07 4.71398e-06 3.98969e-06 1.77247e-09 2.81203e-09
4696 2 0.002 0.0796692 -0.121994 -5.6858e-05 7.19796e-07 -3.0308e-07 2.67564e-07 2.84242e-06 5.88481e-10 1.24485e-09
878 2 0.002 -0.0969446 -0.0959737 -0.00105681 2.80873e-06 -3.35608e-06 1.5233e-06 1.02168e-05 2.0605e-09 1.93325e-08
754 2 0.002 -0.103886 -0.0959876 -0.000286893 1.87503e-06 -1.70289e-06 4.60381e-06 6.62262e-06 1.31216e-09 8.69854e-09
753 2 0.002 -0.103896 -0.099995 -0.00022298 1.24781e-06 -9.94495e-07 2.27614e-06 6.37347e-06 2.32779e-09 1.09008e-08
814 2 0.002 -0.100433 -0.101989 -0.000433189 1.05616e-06 -1.82309e-06 -3.64903e-06 4.13599e-06 2.88149e-09 2.12931e-08
816 2 0.002 -0.100408 -0.0939765 -0.000585784 1.56782e-06 -2.59851e-06 -3.63217e-06 4.24164e-06 1.3063e-09 1.31295e-08
876 2 0.002 -0.096968 -0.103984 -0.00065849 1.42382e-06 -2.27724e-06 -2.95118e-06 4.06521e-06 1.72672e-09 1.67159e-08
877 2 0.002 -0.0969566 -0.0999814 -0.000941059 2.55133e-06 -2.83304e-06 7.43419e-07 9.62709e-06 1.94751e-09 2.20783e-08
813 2 0.002 -0.100445 -0.105988 -0.000217296 6.61418e-07 -6.28301e-07 2.02041e-06 0.00675189 2.60285e-09 1.06542e-08
875 2 0.002 -0.0969822 -0.107989 -0.000319275 9.13603e-07 -1.00257e-06 1.93238e-07 7.09071e-06 2.99403e-09 1.28511e-08
815 2 0.002 -0.100418 -0.097983 -0.000603226 1.69068e-06 -2.39253e-06 -2.89102e-06 4.00532e-06 1.35926e-09 1.38115e-08
694 2 0.002 -0.107363 -0.0979997 -6.94368e-05 7.36617e-07 -7.26196e-07 -1.6839e-06 3.68174e-06 1.17377e-09 4.41883e-09
18 1 0.015 -0.0863963 -0.0954303 -0.0048137 0.000279794 -0.000232856 2.78351e-05 -6.00642e-06 0 1.36303e-06
1072 2 0.002 -0.0865383 -0.0939819 -0.00287389 3.4549e-06 -4.18911e-06 -5.84718e-07 4.19062e-05 7.35186e-08 1.07189e-06
1206 2 0.002 -0.0796221 -0.0939938 -0.001394 2.01656e-06 7.99148e-07 -4.99091e-06 1.82518e-05 1.57467e-08 6.79578e-08
942 2 0.002 -0.0934744 -0.0939667 -0.00155116 2.39639e-06 -3.8349e-06 -1.73813e-06 1.36016e-05 6.83283e-09 3.22467e-08
1069 2 0.002 -0.086573 -0.105994 -0.000927548 2.55289e-06 -2.6175e-06 -1.482e-06 9.85588e-06 4.05513e-09 2.31657e-08
1204 2 0.002 -0.0796505 -0.101993 -0.000797589 3.17464e-06 -7.53573e-07 -4.02724e-06 6.73308e-06 4.05474e-09 3.98059e-08
940 2 0.002 -0.093494 -0.101984 -0.00119362 3.1873e-06 -2.75568e-06 4.04868e-06 1.03919e-05 3.05613e-09 2.39558e-08
1004 2 0.002 -0.0900314 -0.103991 -0.00121744 2.72625e-06 -3.43782e-06 -2.93542e-06 1.03246e-05 4.24889e-09 2.12566e-08
1136 2 0.002 -0.0831028 -0.104 -0.00102409 1.83423e-06 -3.14404e-07 8.64454e-06 6.14001e-06 5.00247e-09 3.38658e-08
1205 2 0.002 -0.0796302 -0.0979933 -0.00126634 3.84312e-06 -7.1992e-07 -6.87127e-06 1.80762e-05 1.02373e-08 7.9315e-08
1137 2 0.002 -0.0830762 -0.100002 -0.0017 4.15183e-06 -3.05413e-06 -4.79397e-06 1.81883e-05 2.86453e-08 6.25975e-08
1138 2 0.002 -0.0830532 -0.0959989 -0.002329 3.55918e-06 -2.0947e-06 1.96355e-06 3.20764e-05 5.06918e-08 4.33288e-07
941 2 0.002 -0.0934833 -0.097978 -0.00151003 3.26878e-06 -3.65101e-06 8.42986e-07 1.26616e-05 5.32035e-09 3.13691e-08
1005 2 0.002 -0.0900187 -0.099993 -0.00179506 2.76724e-06 -4.32669e-06 -5.11e-06 1.46238e-05 1.59385e-08 3.90644e-08
1006 2 0.002 -0.0900147 -0.0959789 -0.00216969 2.83716e-06 -4.07577e-06 -2.77821e-06 1.87098e-05 4.76147e-08 5.87501e-08
1070 2 0.002 -0.0865513 -0.102001 -0.00162396 3.24427e-06 -3.60771e-06 -2.98511e-06 1.47151e-05 1.14859e-08 4.60841e-08
1071 2 0.002 -0.0865391 -0.0980129 -0.00246396 3.85579e-06 -3.46844e-06 4.1347e-06 2.6338e-05 4.95697e-08 2.43919e-07
939 2 0.002 -0.0935083 -0.105986 -0.000759074 2.16595e-06 -1.82107e-06 3.33184e-06 2.70819e-06 1.74884e-09 1.58934e-08
1003 2 0.002 -0.0900484 -0.107987 -0.00065996 2.1286e-06 -1.48641e-06 5.38388e-06 2.42347e-06 2.59314e-09 1.17467e-08
1135 2 0.002 -0.0831316 -0.108003 -0.000401124 2.02131e-06 -8.4472e-07 1.99538e-06 2.30724e-06 2.09764e-09 2.62092e-08
1203 2 0.002 -0.0796771 -0.105997 -0.0002732 2.0028e-06 -1.70409e-07 2.94087e-07 5.10495e-06 2.03529e-09 2.36859e-08
1274 2 0.002 -0.0762012 -0.0959918 -0.000526084 -1.99273e-07 2.05562e-06 8.95221e-07 1.37595e-05 3.32715e-09 4.00664e-08
1273 2 0.002 -0.0762171 -0.0999875 -0.00027875 2.71429e-08 1.79189e-06 4.32265e-06 6.61353e-06 2.19273e-09 4.43248e-08
3585 2 0.002 0.0277894 -0.108071 -7.11239e-05 -1.95649e-06 8.80866e-07 -2.23656e-06 4.06129e-06 2.40225e-09 1.57212e-08
3664 2 0.002 0.0312531 -0.106067 -6.94025e-06 -2.22358e-06 1.03038e-07 2.81408e-07 3.01599e-06 2.44876e-09 2.16733e-08
3896 2 0.002 0.0416025 -0.107959 -0.00111939 -1.10481e-06 -1.69453e-06 -6.80255e-07 7.41217e-06 5.04432e-09 6.62566e-08
3741 2 0.002 0.0347045 -0.108004 -0.00078388 -1.8493e-06 -1.89478e-06 2.0116e-06 4.29388e-06 2.27867e-09 4.6804e-08
3819 2 0.002 0.0381479 -0.106021 -0.000444795 -1.60243e-06 -1.79948e-06 6.6642e-07 3.23231e-06 2.19876e-09 6.29954e-08
3973 2 0.002 0.0450494 -0.105992 -0.000477865 -7.2822e-07 -1.67721e-06 7.41047e-07 5.17219e-06 3.74207e-09 2.59612e-08
3897 2 0.002 0.0415845 -0.104044 1.23079e-05 -9.14978e-07 -1.98881e-06 1.33639e-06 3.59378e-06 2.4339e-09 4.49343e-08
4048 2 0.002 0.0485199 -0.10797 -0.000619257 -8.70956e-07 -2.16194e-06 4.95434e-06 2.61074e-06 3.64404e-09 3.05548e-08
4634 2 0.002 0.0761895 -0.0959498 -0.000172915 -3.59619e-07 -1.04756e-06 -9.50475e-07 3.08881e-06 1.07847e-09 2.32149e-08
4702 2 0.002 0.0796515 -0.0979422 -0.000426045 -8.94882e-07 -1.66399e-06 -3.6103e-07 7.71064e-06 1.8357e-09 1.17253e-08
4769 2 0.002 0.0831183 -0.0999466 -0.000581377 -1.10062e-06 -2.09072e-06 3.9711e-06 6.5264e-06 2.32859e-09 7.33715e-09
4836 2 0.002 0.0865868 -0.0979375 -0.000746906 -1.4647e-06 -2.59218e-06 -6.25218e-06 6.66077e-06 2.15351e-09 7.69357e-09
4902 2 0.002 0.0900576 -0.095932 -0.000709442 -1.80064e-06 -2.13245e-06 2.69046e-06 6.91518e-06 1.43156e-09 7.89747e-09
4770 2 0.002 0.0831154 -0.0959288 -0.000830907 -1.04933e-06 -2.26325e-06 -3.18498e-06 8.20564e-06 3.45395e-09 1.331e-08