ITEM: TIMESTEP
45000
ITEM: NUMBER OF ATOMS
112
ITEM: BOX BOUNDS ff ff ff
-2.5000000000000000e-01 2.5000000000000000e-01
-2.5000000000000000e-01 2.5000000000000000e-01
-1.0000000000000001e-01 1.0000000000000001e-01
ITEM: ATOMS id type radius x y z fx fy fz v_pressure c_bendingE c_stretchingE
96 1 0.015 -0.0299061 -0.143658 0 1.72563e-31 -2.76101e-30 0 -0.00020678 0 0
68 1 0.015 0.00950821 -0.145836 0 -1.72563e-31 2.76101e-30 0 -0.000306328 0 0
80 1 0.015 0.0369748 -0.14268 0 -6.90253e-31 -2.5638e-30 0 -0.000277707 0 0
63 1 0.015 -0.0568708 -0.13411 0 -3.45127e-31 -2.76101e-30 0 -0.000122727 0 0
85 1 0.015 -0.00885822 -0.12629 0 1.72563e-31 -2.76101e-30 0 -0.000273162 0 0
4 1 0.015 0.0641747 -0.131114 0 -1.38051e-30 2.76101e-30 0 -0.000104921 0 0
47 1 0.015 -0.082443 -0.12184 0 -1.38051e-30 -1.38051e-30 0 -0.000251412 0 0
71 1 0.015 -0.0349175 -0.116229 0 6.90253e-31 1.38051e-30 0 -0.000190265 0 0
102 1 0.015 0.0136193 -0.110124 0 -1.60237e-31 -1.38051e-30 0 -0.000173686 0 0
109 1 0.015 0.0399027 -0.117214 0 6.90253e-31 -1.38051e-30 0 -0.000365098 0 0
66 1 0.015 0.0882404 -0.115283 0 -1.38051e-30 1.38051e-30 0 -0.000119736 0 0
18 1 0.015 -0.0864145 -0.0950845 0 1.38051e-30 1.38051e-30 0 -0.000270971 0 0
24 1 0.015 -0.060469 -0.105432 0 -6.90253e-31 1.38051e-30 0 -0.000191804 0 0
89 1 0.015 -0.0125604 -0.0990109 0 -1.72563e-31 1.38051e-30 0 -0.000190273 0 0
27 1 0.015 0.0627301 -0.102506 0 -1.38051e-30 -1.38051e-30 0 -0.000171595 0 0
78 1 0.015 0.109395 -0.096385 0 -1.38051e-30 1.38051e-30 0 -0.000193976 0 0
35 1 0.015 -0.113562 -0.093476 0 -1.2819e-30 -1.38051e-30 0 -0.000243143 0 0
100 1 0.015 -0.0387954 -0.0884559 0 6.90253e-31 1.38051e-30 0 -0.00018747 0 0
3 1 0.015 0.00977955 -0.0820351 0 -1.72563e-31 1.38051e-30 0 -0.000178187 0 0
97 1 0.015 0.0358766 -0.0911038 0 -6.90253e-31 1.2819e-30 0 -0.000214912 0 0
72 1 0.015 0.0839582 -0.0852843 0 -1.38051e-30 -1.38051e-30 0 -0.000196358 0 0
14 1 0.015 -0.12799 -0.0689329 0 2.76101e-30 -1.38051e-30 0 -0.000101125 0 0
67 1 0.015 -0.0988051 -0.0704502 0 -1.38051e-30 -1.38051e-30 0 -0.000236344 0 0
26 1 0.015 -0.0654686 -0.0771606 0 -1.38051e-30 1.38051e-30 0 -0.000169004 0 0
49 1 0.015 -0.0163199 -0.0716224 0 -3.45127e-31 -1.38051e-30 0 -0.0001928 0 0
7 1 0.015 0.0320037 -0.0639587 0 -6.90253e-31 -1.38051e-30 0 -0.00020672 0 0
111 1 0.015 0.0580305 -0.0744671 0 -6.90253e-31 1.38051e-30 0 -0.000182428 0 0
55 1 0.015 0.10347 -0.0658835 0 -1.38051e-30 -1.38051e-30 0 -0.000298631 0 0
19 1 0.015 0.127538 -0.0752251 0 2.76101e-30 -1.2819e-30 0 -0.000365403 0 0
5 1 0.015 -0.0784658 -0.0522401 0 1.38051e-30 6.90253e-31 0 -0.000281074 0 0
98 1 0.015 -0.0427909 -0.0612616 0 -6.90253e-31 6.90253e-31 0 -0.000219903 0 0
37 1 0.015 0.00632082 -0.0543283 0 2.00297e-32 6.90253e-31 0 -0.000206331 0 0
94 1 0.015 0.0787458 -0.0562134 0 -1.38051e-30 -6.90253e-31 0 -0.000213174 0 0
84 1 0.015 0.12627 -0.0482979 0 -2.76101e-30 -6.90253e-31 0 -0.000222481 0 0
38 1 0.015 -0.139131 -0.0425196 0 2.76101e-30 -6.90253e-31 0 -0.000107462 0 0
28 1 0.015 -0.110921 -0.0460061 0 -1.38051e-30 -6.90253e-31 0 -0.000191024 0 0
13 1 0.015 -0.0438115 -0.0346523 0 -6.90253e-31 6.90253e-31 0 -0.000369101 0 0
43 1 0.015 -0.0190522 -0.0444119 0 8.01187e-32 6.90253e-31 0 -0.000234829 0 0
77 1 0.015 0.0279282 -0.0361957 0 -3.20475e-31 6.90253e-31 0 -0.000209786 0 0
110 1 0.015 0.0534869 -0.0462055 0 6.90253e-31 3.20475e-31 0 -0.00020582 0 0
79 1 0.015 0.100619 -0.0379802 0 -1.38051e-30 6.90253e-31 0 -0.000194871 0 0
50 1 0.015 -0.12087 -0.0197592 0 1.38051e-30 -3.45127e-31 0 -0.000212485 0 0
44 1 0.015 -0.0944037 -0.0236391 0 1.38051e-30 -3.45127e-31 0 -0.000262316 0 0
82 1 0.015 -0.0685384 -0.027326 0 1.38051e-30 -3.20475e-31 0 -0.000384834 0 0
104 1 0.015 -0.0231333 -0.0165007 0 1.72563e-31 3.45127e-31 0 -0.000232632 0 0
40 1 0.015 0.00239181 -0.0263753 0 -2.15704e-32 3.45127e-31 0 -0.000212484 0 0
76 1 0.015 0.0495383 -0.0182415 0 6.40949e-31 -7.3405e-19 0 -0.000202012 0 0
9 1 0.015 0.0751318 -0.0281103 0 -2.20215e-18 1.3947e-17 0 -0.000198383 0 0
70 1 0.015 0.121519 -0.0193708 0 1.38051e-30 -3.45127e-31 0 -0.00028494 0 0
65 1 0.015 0.145226 -0.0294819 0 1.18329e-30 -3.45127e-31 0 -0.000384719 0 0
99 1 0.015 -0.14688 -0.0151398 0 -2.76101e-30 8.01187e-32 0 -0.000299251 0 0
105 1 0.015 -0.0764822 -0.00109573 0 -1.38051e-30 -5.00742e-33 0 -0.000203577 0 0
41 1 0.015 -0.0493124 -0.00751005 0 -6.90253e-31 -4.31408e-32 0 -0.000242118 0 0
32 1 0.015 0.0238252 -0.00834203 0 1.72563e-31 -1.72563e-31 0 -0.000204138 0 0
11 1 0.015 0.0712221 -0.000154945 0 3.18599e-18 -1.79367e-17 0 -0.000204174 0 0
103 1 0.015 0.0966743 -0.0097351 0 1.38051e-30 1.60237e-31 0 -0.000209823 0 0
31 1 0.015 0.14576 -0.00168911 0 -2.76101e-30 1.07852e-32 0 -0.000197979 0 0
108 1 0.015 -0.131222 0.00695323 0 -2.76101e-30 4.31408e-32 0 -0.000226718 0 0
74 1 0.015 -0.103795 0.00322237 0 -1.38051e-30 -2.00297e-32 0 -0.000163579 0 0
86 1 0.015 -0.0285072 0.0107992 0 1.72563e-31 -7.39557e-32 0 -0.000191469 0 0
17 1 0.015 -0.00202944 0.00150826 0 -4.00593e-32 2.15704e-32 0 -0.000202105 0 0
81 1 0.015 0.0455343 0.00956998 0 6.90253e-31 1.60237e-31 0 -0.000204146 0 0
1 1 0.015 0.119822 0.00820226 0 1.38051e-30 -1.72563e-31 0 -0.000167837 0 0
53 1 0.015 -0.113918 0.0297048 0 -1.38051e-30 3.45127e-31 0 -0.000128053 0 0
29 1 0.015 -0.0852037 0.0250088 0 -1.38051e-30 3.45127e-31 0 -0.000155406 0 0
93 1 0.015 -0.0563342 0.0188844 0 -6.90253e-31 3.45127e-31 0 -0.000183947 0 0
73 1 0.015 -0.0062439 0.0289496 0 -4.31408e-32 -3.45127e-31 0 -0.00019968 0 0
36 1 0.015 0.0197391 0.0193639 0 -3.45127e-31 -3.45127e-31 0 -0.000202941 0 0
46 1 0.015 0.0674552 0.0274748 0 -9.83842e-19 6.55895e-18 0 -0.000198227 0 0
88 1 0.015 0.0935 0.0178122 0 1.38051e-30 -3.45127e-31 0 -0.000184708 0 0
8 1 0.015 0.142847 0.0265084 0 2.76101e-30 -3.45127e-31 0 -0.000100381 0 0
59 1 0.015 -0.142744 0.0313836 0 -2.76101e-30 -6.90253e-31 0 -0.000228469 0 0
92 1 0.015 -0.0577778 0.0455646 0 -6.90253e-31 6.90253e-31 0 -0.000327118 0 0
91 1 0.015 -0.0321521 0.03756 0 -6.90253e-31 6.90253e-31 0 -0.000273564 0 0
22 1 0.015 0.0154281 0.0469192 0 -8.01187e-32 6.90253e-31 0 -0.000192212 0 0
33 1 0.015 0.041613 0.0372428 0 6.90253e-31 -6.90253e-31 0 -0.000194788 0 0
69 1 0.015 0.0890824 0.045462 0 1.38051e-30 6.90253e-31 0 -0.000234255 0 0
6 1 0.015 0.115655 0.0353514 0 -1.38051e-30 -6.90253e-31 0 -0.000183695 0 0
56 1 0.015 -0.135182 0.0578419 0 2.76101e-30 6.90253e-31 0 -0.000274155 0 0
10 1 0.015 -0.109037 0.0569922 0 1.38051e-30 -6.90253e-31 0 -0.000316537 0 0
16 1 0.015 -0.0834741 0.0520903 0 1.38051e-30 -6.90253e-31 0 -0.000330407 0 0
62 1 0.015 -0.0108357 0.0567502 0 1.60237e-31 6.90253e-31 0 -0.000175389 0 0
21 1 0.015 0.0637652 0.0552968 0 1.38051e-30 -6.90253e-31 0 -0.000225323 0 0
57 1 0.015 0.109927 0.0625261 0 -1.38051e-30 -1.38051e-30 0 -0.000288952 0 0
45 1 0.015 0.136144 0.054385 0 2.76101e-30 6.90253e-31 0 -0.000192075 0 0
15 1 0.015 -0.0643014 0.0720307 0 1.38051e-30 1.2819e-30 0 -0.000236439 0 0
52 1 0.015 -0.0369797 0.0646535 0 -6.90253e-31 1.38051e-30 0 -0.00021623 0 0
30 1 0.015 0.010712 0.0742785 0 -1.60237e-31 1.38051e-30 0 -0.00018135 0 0
61 1 0.015 0.0375007 0.0645911 0 6.40949e-31 1.38051e-30 0 -0.000187963 0 0
106 1 0.015 -0.120259 0.08259 0 -1.38051e-30 -1.38051e-30 0 -0.000127774 0 0
54 1 0.015 -0.0915527 0.0790767 0 -1.38051e-30 -1.38051e-30 0 -0.000161789 0 0
48 1 0.015 -0.0437873 0.0905198 0 6.90253e-31 -1.38051e-30 0 -0.000303509 0 0
12 1 0.015 -0.0161845 0.0852181 0 -3.45127e-31 1.38051e-30 0 -0.000105804 0 0
107 1 0.015 0.0332704 0.0914048 0 -6.90253e-31 1.38051e-30 0 -0.000204772 0 0
20 1 0.015 0.0604073 0.0823794 0 6.90253e-31 -1.38051e-30 0 -0.000198224 0 0
83 1 0.015 0.0883521 0.0804328 0 1.38051e-30 -1.38051e-30 0 -0.000125674 0 0
60 1 0.015 0.117018 0.0881412 0 1.38051e-30 8.62817e-32 0 -0.000226268 0 0
39 1 0.015 -0.10217 0.104369 0 1.38051e-30 -1.38051e-30 0 -0.00022499 0 0
51 1 0.015 -0.0704863 0.0985586 0 1.38051e-30 -1.38051e-30 0 -0.000266456 0 0
25 1 0.015 0.00697567 0.101339 0 4.31408e-32 -1.38051e-30 0 -0.000255143 0 0
101 1 0.015 0.0548623 0.108957 0 6.90253e-31 1.38051e-30 0 -0.000249274 0 0
34 1 0.015 0.097483 0.107571 0 1.38051e-30 1.38051e-30 0 -0.000221576 0 0
58 1 0.015 -0.0813871 0.12254 0 -1.38051e-30 -1.2819e-30 0 -0.000338475 0 0
23 1 0.015 -0.0384159 0.11599 0 6.90253e-31 6.90253e-31 0 -0.000352069 0 0
95 1 0.015 -0.0117137 0.120469 0 -1.72563e-31 -1.38051e-30 0 -0.000270458 0 0
87 1 0.015 0.0284411 0.118579 0 3.45127e-31 1.38051e-30 0 -0.000235785 0 0
42 1 0.015 0.0764926 0.125007 0 5.91646e-31 2.76101e-30 0 -0.000271777 0 0
75 1 0.015 -0.0572536 0.134975 0 -6.90253e-31 2.76101e-30 0 -0.000293578 0 0
90 1 0.015 0.0508596 0.136742 0 -6.90253e-31 2.76101e-30 0 -0.00016138 0 0
64 1 0.015 -0.0302632 0.142757 0 -3.45127e-31 -2.76101e-30 0 -0.000171662 0 0
112 1 0.015 -0.00281771 0.14625 0 -4.31408e-32 -2.76101e-30 0 -0.000291632 0 0
2 1 0.015 0.0241794 0.144832 0 3.20475e-31 -2.76101e-30 0 -0.000317294 0 0
