ITEM: TIMESTEP
20000
ITEM: NUMBER OF ATOMS
112
ITEM: BOX BOUNDS ff ff ff
-2.5000000000000000e-01 2.5000000000000000e-01
-2.5000000000000000e-01 2.5000000000000000e-01
-1.0000000000000001e-01 1.0000000000000001e-01
ITEM: ATOMS id type radius x y z fx fy fz v_pressure c_bendingE c_stretchingE
98 1 0.015 -0.0129115 -0.146978 0 2.95721e-11 1.03909e-12 0 -0.000318202 0 0
51 1 0.015 0.0142446 -0.143775 0 3.22283e-11 -9.53626e-12 0 -0.00020084 0 0
93 1 0.015 0.0417055 -0.141616 0 3.49067e-11 1.78645e-11 0 -0.000387401 0 0
56 1 0.015 -0.0672589 -0.128952 0 2.17969e-11 -1.47087e-11 0 -9.65362e-05 0 0
61 1 0.015 -0.040763 -0.14011 0 2.42074e-11 -8.01307e-12 0 -0.000121425 0 0
76 1 0.015 0.0660274 -0.130254 0 3.40997e-11 2.1104e-11 0 -0.000319692 0 0
9 1 0.015 -0.0920057 -0.114438 0 1.97228e-11 -2.46718e-11 0 -0.000212454 0 0
24 1 0.015 -0.0439874 -0.112165 0 8.28579e-12 -7.05986e-12 0 -0.000186646 0 0
103 1 0.015 -0.0185967 -0.121937 0 1.04746e-11 -1.79396e-13 0 -0.000331179 0 0
20 1 0.015 0.029432 -0.118909 0 -8.5671e-12 2.39528e-12 0 -0.000283166 0 0
43 1 0.015 0.0886112 -0.115673 0 3.02361e-11 2.3772e-11 0 -0.000281534 0 0
88 1 0.015 -0.0684711 -0.10006 0 3.25702e-12 -1.3699e-11 0 -0.000193121 0 0
92 1 0.015 -0.0202776 -0.0951996 0 -4.78113e-12 2.84848e-12 0 -0.00022332 0 0
47 1 0.015 0.00484427 -0.108043 0 -2.5214e-12 1.39179e-11 0 -0.000221595 0 0
31 1 0.015 0.0544122 -0.10509 0 -1.33554e-11 4.71971e-12 0 -0.000143566 0 0
68 1 0.015 0.108332 -0.0970295 0 2.80899e-11 2.04333e-11 0 -0.000240633 0 0
37 1 0.015 -0.119702 -0.0837914 0 -8.39351e-12 1.85635e-11 0 -0.00031805 0 0
90 1 0.015 -0.0931236 -0.0870624 0 -1.22828e-11 -3.02685e-11 0 -0.000262466 0 0
33 1 0.015 -0.0452789 -0.0841267 0 -8.21656e-12 -7.38226e-12 0 -0.000202734 0 0
46 1 0.015 0.00329054 -0.0800163 0 -1.22068e-11 1.29496e-11 0 -0.000191209 0 0
45 1 0.015 0.0286338 -0.0919035 0 -1.05931e-11 9.57213e-12 0 -0.000194602 0 0
53 1 0.015 0.0784112 -0.0893741 0 -1.7327e-11 6.94153e-12 0 -0.00011315 0 0
96 1 0.015 -0.0701123 -0.0717768 0 -2.01101e-11 -1.86625e-11 0 -0.000197448 0 0
29 1 0.015 -0.0216984 -0.0677722 0 -1.40234e-11 4.85215e-12 0 -0.00021258 0 0
22 1 0.015 0.0262384 -0.0642608 0 -1.94757e-11 1.40863e-11 0 -0.000194584 0 0
52 1 0.015 0.0520728 -0.0771165 0 -1.54817e-11 1.05425e-11 0 -0.000162303 0 0
112 1 0.015 0.0993925 -0.0701642 0 -9.83885e-12 -1.616e-13 0 -0.000240358 0 0
91 1 0.015 0.12573 -0.0756172 0 8.63986e-12 3.31571e-11 0 -0.000324472 0 0
99 1 0.015 -0.134546 -0.0606014 0 -1.17742e-11 1.4461e-11 0 -0.000295587 0 0
28 1 0.015 -0.0953487 -0.0591946 0 -3.15575e-11 -2.70722e-11 0 -0.000162254 0 0
109 1 0.015 -0.0465217 -0.0564654 0 -2.11963e-11 -1.45527e-11 0 -0.000224358 0 0
27 1 0.015 0.00123636 -0.0517682 0 -1.99431e-11 1.62831e-11 0 -0.00019789 0 0
30 1 0.015 0.0486112 -0.0489347 0 -2.45598e-11 1.10016e-11 0 -0.000199511 0 0
25 1 0.015 0.0742826 -0.0609112 0 -1.34554e-11 8.04055e-12 0 -0.000242036 0 0
10 1 0.015 0.136103 -0.0508449 0 1.61315e-11 2.9195e-11 0 -0.000288519 0 0
78 1 0.015 -0.142575 -0.0321492 0 -7.40001e-12 1.75729e-11 0 -0.000115498 0 0
41 1 0.015 -0.116713 -0.0424884 0 -1.15865e-11 5.98519e-12 0 -0.000391041 0 0
16 1 0.015 -0.0711711 -0.0439777 0 -3.13599e-11 -2.30771e-11 0 -0.000200335 0 0
63 1 0.015 -0.0232257 -0.0397872 0 -2.15652e-11 6.27557e-12 0 -0.000270273 0 0
8 1 0.015 0.0232847 -0.0358101 0 -2.72682e-11 2.20898e-11 0 -0.000180881 0 0
107 1 0.015 0.0714565 -0.033917 0 -3.09854e-11 4.62559e-12 0 -0.000269575 0 0
106 1 0.015 0.108532 -0.0435926 0 1.01899e-11 -8.86322e-12 0 -0.00013476 0 0
44 1 0.015 -0.094049 -0.0293885 0 -1.65653e-11 -5.13337e-12 0 -0.00023469 0 0
84 1 0.015 -0.0472704 -0.0290842 0 -3.3867e-11 -2.73162e-11 0 -0.000328085 0 0
110 1 0.015 -0.0021082 -0.0225027 0 -3.20507e-11 2.96323e-11 0 -0.000168425 0 0
75 1 0.015 0.0462463 -0.0208762 0 -2.50801e-11 1.56569e-11 0 -0.000195698 0 0
87 1 0.015 0.0938822 -0.0195223 0 -1.57026e-11 -2.62536e-11 0 -0.000283735 0 0
1 1 0.015 0.120255 -0.0170069 0 -1.49671e-11 1.71692e-12 0 -0.00030227 0 0
85 1 0.015 0.145063 -0.0255979 0 1.70069e-12 3.21915e-11 0 -0.000380334 0 0
48 1 0.015 -0.145197 -0.003473 0 -1.9072e-12 2.19023e-11 0 -9.42574e-05 0 0
73 1 0.015 -0.119453 -0.0155963 0 -9.28647e-12 7.60737e-12 0 -0.000192192 0 0
17 1 0.015 -0.0946041 -0.00184671 0 -1.13721e-11 -2.73302e-12 0 -0.000196847 0 0
2 1 0.015 -0.0703464 -0.0154971 0 -2.11752e-11 -1.65978e-11 0 -0.000231078 0 0
34 1 0.015 -0.0446727 -0.00232373 0 -1.91024e-11 -3.55876e-11 0 -0.000233085 0 0
58 1 0.015 0.0210438 -0.00758136 0 -2.2132e-11 2.8334e-11 0 -0.000208009 0 0
60 1 0.015 0.0694076 -0.00604377 0 -1.14387e-11 -1.08518e-12 0 -0.000214373 0 0
54 1 0.015 -0.119295 0.0114892 0 -4.63764e-12 8.43702e-12 0 -0.000175556 0 0
26 1 0.015 -0.069041 0.0116664 0 -1.09714e-11 -1.7333e-11 0 -0.000207077 0 0
42 1 0.015 -0.0173865 0.00132788 0 -3.34548e-11 4.21569e-11 0 -0.000169082 0 0
95 1 0.015 0.0443133 0.00709399 0 -5.94642e-12 1.65648e-11 0 -0.000232316 0 0
70 1 0.015 0.093344 0.008226 0 8.91076e-13 -2.592e-11 0 -0.000215017 0 0
18 1 0.015 0.120666 0.0105391 0 -1.21568e-12 4.67903e-12 0 -0.000249744 0 0
23 1 0.015 0.146304 0.00162212 0 3.08538e-12 2.54048e-11 0 -0.00027374 0 0
36 1 0.015 -0.143661 0.0248084 0 4.63078e-12 2.49115e-11 0 -0.000197924 0 0
19 1 0.015 -0.0928617 0.0253386 0 -3.55841e-12 -2.43491e-12 0 -0.000215484 0 0
72 1 0.015 -0.0443857 0.0250687 0 -4.57866e-12 -3.9646e-11 0 -0.000239092 0 0
5 1 0.015 -0.017858 0.0305113 0 -2.62804e-11 5.34344e-11 0 -0.00016921 0 0
94 1 0.015 0.00637416 0.0158723 0 -3.53035e-11 2.66688e-11 0 -0.00018952 0 0
102 1 0.015 0.0301124 0.0304508 0 -2.81087e-11 4.98686e-12 0 -0.000222342 0 0
77 1 0.015 0.0677215 0.0214309 0 8.77819e-12 -1.97849e-12 0 -0.000252922 0 0
81 1 0.015 0.143177 0.0293962 0 1.72928e-12 1.70099e-11 0 -0.000150699 0 0
3 1 0.015 -0.116122 0.0385082 0 1.64007e-12 8.31729e-12 0 -0.000298483 0 0
69 1 0.015 -0.0683434 0.0394721 0 4.34395e-12 -1.76902e-11 0 -0.000201983 0 0
101 1 0.015 0.00615355 0.0443443 0 -1.80765e-11 2.71992e-11 0 -0.000181862 0 0
80 1 0.015 0.0535817 0.0447453 0 -1.51331e-11 -1.5965e-11 0 -0.000259655 0 0
7 1 0.015 0.0907196 0.0355608 0 1.83682e-11 -2.27203e-11 0 -0.000310764 0 0
100 1 0.015 0.116951 0.0371654 0 1.01537e-11 4.99206e-12 0 -0.000339667 0 0
83 1 0.015 -0.138456 0.0521298 0 1.02734e-11 2.57497e-11 0 -0.000356877 0 0
15 1 0.015 -0.0920241 0.0534396 0 1.22766e-11 -2.48758e-12 0 -0.000202669 0 0
67 1 0.015 -0.0440659 0.0529939 0 1.14749e-11 -3.75773e-11 0 -0.00022066 0 0
65 1 0.015 -0.0179697 0.0594186 0 -1.10866e-11 5.5809e-11 0 -0.000192831 0 0
14 1 0.015 0.0305118 0.0591242 0 -4.74894e-12 3.51351e-12 0 -0.00017902 0 0
11 1 0.015 0.0767806 0.058084 0 -3.72358e-13 -3.2812e-11 0 -0.000359249 0 0
57 1 0.015 0.103732 0.061625 0 7.08096e-13 -7.48855e-12 0 -0.000192886 0 0
38 1 0.015 0.134883 0.0570896 0 -4.72457e-12 1.5211e-11 0 -0.000230917 0 0
82 1 0.015 -0.115929 0.0666556 0 2.1274e-11 7.20632e-12 0 -0.000273205 0 0
12 1 0.015 -0.0678347 0.0677615 0 1.65828e-11 -1.51232e-11 0 -0.000196343 0 0
49 1 0.015 0.00631317 0.0720905 0 2.96562e-12 2.1857e-11 0 -0.000214387 0 0
62 1 0.015 0.0551633 0.0740408 0 7.97948e-12 -1.8763e-11 0 -0.000190805 0 0
105 1 0.015 -0.115156 0.0928834 0 1.13149e-11 6.45148e-12 0 -0.000387925 0 0
104 1 0.015 -0.0910372 0.0816926 0 2.06092e-11 3.13355e-12 0 -0.000204399 0 0
50 1 0.015 -0.0444443 0.0815383 0 2.15406e-11 -2.83494e-11 0 -0.000209911 0 0
4 1 0.015 -0.018377 0.0880828 0 3.92064e-12 5.01052e-11 0 -0.000184469 0 0
89 1 0.015 0.0313413 0.0873215 0 1.66044e-11 1.55955e-12 0 -0.000203655 0 0
13 1 0.015 0.0844909 0.0841229 0 8.69667e-12 -2.72172e-11 0 -0.000207005 0 0
55 1 0.015 0.121869 0.0815031 0 -1.04957e-11 9.26315e-12 0 -0.000305905 0 0
40 1 0.015 -0.0680666 0.0976743 0 2.69937e-11 -3.36147e-13 0 -0.000100943 0 0
97 1 0.015 0.00649687 0.0985343 0 1.94513e-11 1.42302e-11 0 -0.00036271 0 0
74 1 0.015 0.0623635 0.101322 0 1.39833e-11 -2.08743e-11 0 -0.00021119 0 0
64 1 0.015 0.10464 0.102455 0 -1.15211e-11 5.11416e-12 0 -0.000312573 0 0
21 1 0.015 -0.0942528 0.110489 0 1.21404e-11 1.21403e-12 0 -0.000181774 0 0
32 1 0.015 -0.0424768 0.109919 0 3.91773e-11 -1.84865e-11 0 -0.000150919 0 0
6 1 0.015 -0.0151816 0.116841 0 2.9619e-11 3.10264e-11 0 -0.000138454 0 0
86 1 0.015 0.0127102 0.123263 0 2.82836e-11 6.33448e-12 0 -0.000365199 0 0
66 1 0.015 0.0383081 0.1143 0 2.24594e-11 -1.28338e-12 0 -0.000224884 0 0
71 1 0.015 0.0835145 0.119567 0 -5.62605e-12 3.99566e-12 0 -0.000260461 0 0
111 1 0.015 -0.0720173 0.126175 0 4.57772e-12 1.59727e-12 0 -0.000247472 0 0
108 1 0.015 -0.0475994 0.137734 0 5.48631e-12 -1.02075e-11 0 -0.000284234 0 0
59 1 0.015 0.0594659 0.132868 0 3.99581e-12 6.45515e-12 0 -0.00021319 0 0
39 1 0.015 -0.0214882 0.144159 0 -1.39619e-12 1.13994e-11 0 -0.000297016 0 0
35 1 0.015 0.00527152 0.147608 0 1.02903e-12 -2.08266e-12 0 -0.000361762 0 0
79 1 0.015 0.0331678 0.142326 0 8.52488e-12 3.76916e-12 0 -0.000166755 0 0
