ITEM: TIMESTEP
150000
ITEM: NUMBER OF ATOMS
5843
ITEM: BOX BOUNDS ff ff ff
-2.5000000000000000e-01 2.5000000000000000e-01
-2.5000000000000000e-01 2.5000000000000000e-01
-1.0000000000000001e-01 1.0000000000000001e-01
ITEM: ATOMS id type radius x y z fx fy fz v_pressure c_bendingE c_stretchingE
98 1 0.015 -0.0134908 -0.149042 -0.00140535 1.47338e-05 -1.25691e-05 -4.2013e-06 -6.25578e-06 0 3.42827e-06
2624 2 0.002 -0.0138852 -0.144055 -0.000357977 -2.02892e-07 8.1234e-08 -2.96594e-07 7.12678e-06 3.22275e-08 2.06784e-06
2703 2 0.002 -0.0104416 -0.146058 -0.000498453 -7.77717e-08 5.05197e-08 -5.91929e-08 5.53397e-06 4.06006e-08 1.44125e-06
2783 2 0.002 -0.00698201 -0.143995 -1.45305e-05 -2.7773e-07 7.38079e-08 4.67234e-07 5.15717e-06 1.62562e-08 2.60476e-08
3655 2 0.002 0.0311726 -0.141979 -6.13775e-05 -2.32484e-09 -1.37456e-07 6.94328e-08 5.29598e-06 1.54869e-09 5.97975e-09
3498 2 0.002 0.0242397 -0.14197 -7.3367e-05 -7.20092e-09 -1.00112e-07 7.32866e-07 6.19487e-06 4.97418e-10 8.65765e-09
3576 2 0.002 0.0277082 -0.143981 -4.85417e-05 -6.66828e-09 -1.00781e-07 -2.58309e-07 2.51861e-06 4.36063e-10 5.21494e-09
3419 2 0.002 0.0207788 -0.143979 1.126e-05 -2.59329e-08 -7.27433e-08 -1.06482e-06 5.71539e-06 4.24864e-10 6.463e-09
1477 2 0.002 -0.0658404 -0.130026 -0.00048246 1.47265e-07 2.02755e-07 3.67265e-06 7.9479e-07 1.13491e-08 4.05628e-08
1478 2 0.002 -0.0658498 -0.126045 -0.000692617 1.01198e-07 -2.83528e-07 -3.56057e-07 3.95967e-06 6.82579e-09 3.80996e-07
1406 2 0.002 -0.0692969 -0.128016 -0.000357812 -1.80552e-07 -1.93803e-07 -1.99724e-06 1.23301e-07 7.90356e-09 1.12212e-08
56 1 0.015 -0.0677761 -0.129686 -0.00108325 1.70468e-06 1.56058e-06 2.07376e-07 -2.76465e-06 0 4.10359e-07
1336 2 0.002 -0.0727451 -0.125997 -0.000124555 5.40699e-08 -1.20781e-07 7.0086e-07 1.69604e-06 1.73506e-09 5.06313e-10
1849 2 0.002 -0.0484702 -0.127982 -0.000552331 -9.07733e-09 -4.06966e-08 1.5849e-06 2.19548e-06 7.59849e-10 3.30837e-09
1774 2 0.002 -0.0519336 -0.125983 -0.00076616 8.38427e-08 -4.385e-07 -8.98759e-07 2.38018e-06 7.10972e-10 4.08184e-09
1848 2 0.002 -0.0484856 -0.131984 -0.000245819 5.71185e-08 -1.07062e-07 3.81421e-08 3.22891e-06 7.22696e-10 2.04174e-09
1550 2 0.002 -0.0623625 -0.12801 -0.000621138 1.48998e-07 -3.67631e-07 -5.7372e-07 4.34819e-06 5.16991e-09 4.57093e-09
1624 2 0.002 -0.0588841 -0.125994 -0.000709912 1.68489e-07 -5.04023e-07 -1.58882e-07 4.70104e-06 1.67021e-09 4.73817e-09
1623 2 0.002 -0.0588866 -0.129994 -0.00047475 1.14841e-07 -3.08003e-07 6.01581e-07 3.70334e-06 7.82485e-10 2.56253e-09
1622 2 0.002 -0.0588878 -0.133993 -0.000178752 6.63583e-08 -1.49311e-07 4.70543e-07 3.01925e-06 1.04779e-09 1.78277e-09
1772 2 0.002 -0.0519554 -0.133989 -0.000192186 7.46453e-08 -1.54008e-07 -6.35222e-08 1.56379e-06 6.00938e-10 2.30483e-09
1697 2 0.002 -0.0554183 -0.131988 -0.000335767 9.63522e-08 -2.49045e-07 3.8789e-07 1.67682e-06 3.20741e-10 2.0987e-09
1698 2 0.002 -0.0554117 -0.127987 -0.000617802 1.26809e-07 -4.36266e-07 -1.83734e-07 4.18485e-06 4.55918e-10 3.2783e-09
1773 2 0.002 -0.0519457 -0.129984 -0.000462083 9.66073e-08 -3.07096e-07 -4.41462e-07 1.9192e-06 2.71532e-10 2.75366e-09
1549 2 0.002 -0.0623573 -0.132001 -0.000291234 5.94332e-08 -3.29885e-07 -1.71018e-06 3.1258e-06 4.13245e-09 1.79393e-09
1696 2 0.002 -0.0554229 -0.135992 -9.73069e-05 3.89051e-08 -1.40632e-07 -4.61231e-07 1.30562e-06 6.16457e-10 1.34799e-09
1847 2 0.002 -0.0484959 -0.135992 -4.31433e-05 3.30057e-08 -4.97456e-08 1.1471e-07 2.28009e-06 6.93824e-10 1.23933e-09
1925 2 0.002 -0.0449945 -0.125983 -0.000589567 -3.89101e-08 -2.29818e-08 -4.09797e-07 2.69805e-06 1.73127e-09 5.14058e-09
2001 2 0.002 -0.0415463 -0.127986 -0.000131639 -1.63634e-07 2.82221e-07 3.17366e-07 2.52893e-06 1.48169e-09 4.79378e-09
1924 2 0.002 -0.0450144 -0.129984 -0.000230793 4.75458e-08 -5.15207e-08 -1.0103e-06 4.00727e-06 1.03301e-09 2.99652e-09
1923 2 0.002 -0.0450314 -0.13399 2.65857e-05 7.85485e-09 2.14445e-08 -1.71534e-07 2.64395e-06 1.59048e-09 1.82126e-09
3502 2 0.002 0.0242105 -0.125881 -0.00105748 1.86493e-07 -2.64469e-07 1.73009e-07 1.17709e-05 5.15506e-09 2.19284e-08
3344 2 0.002 0.0172901 -0.12588 -0.000184044 3.20814e-07 3.14033e-08 1.12655e-07 9.92624e-06 1.80696e-09 1.71332e-08
3422 2 0.002 0.020759 -0.131906 -0.000331771 1.3721e-07 -1.98541e-07 -1.4481e-07 4.01171e-06 8.12525e-10 1.04072e-08
3423 2 0.002 0.0207529 -0.127885 -0.000540677 2.44167e-07 -1.25233e-07 2.25321e-07 9.62762e-06 1.72114e-09 1.45712e-08
3501 2 0.002 0.0242214 -0.1299 -0.00069363 1.36651e-07 -3.22213e-07 -1.58111e-07 9.14736e-06 1.68044e-09 1.43409e-08
3579 2 0.002 0.0276952 -0.13192 -0.000628781 1.04393e-07 -3.93947e-07 2.85059e-07 4.33057e-06 1.80845e-09 1.58407e-08
3580 2 0.002 0.0276841 -0.127902 -0.0010485 1.53324e-07 -4.52726e-07 1.82024e-07 1.08947e-05 3.80956e-09 2.47386e-08
3499 2 0.002 0.0242337 -0.137944 -0.000203807 2.57877e-08 -2.07759e-07 5.593e-07 6.69945e-06 5.15126e-10 8.64996e-09
3578 2 0.002 0.0277003 -0.135938 -0.000332841 4.53956e-08 -3.43239e-07 -2.66946e-07 7.01966e-06 9.42491e-10 9.59854e-09
3421 2 0.002 0.0207651 -0.135929 -0.000155939 8.67099e-08 -1.59579e-07 6.79951e-07 7.01806e-06 4.72453e-10 8.7122e-09
3500 2 0.002 0.0242288 -0.133921 -0.000406266 6.50905e-08 -3.16958e-07 -3.71717e-07 3.79328e-06 9.13834e-10 1.04756e-08
3656 2 0.002 0.0311711 -0.137958 -0.0001493 3.43371e-08 -2.78541e-07 1.93687e-07 6.31324e-06 1.64629e-09 7.722e-09
3657 2 0.002 0.0311704 -0.133943 -0.000389722 8.02655e-08 -4.10065e-07 3.60419e-07 2.81292e-06 1.47326e-09 1.88247e-08
3658 2 0.002 0.0311595 -0.129928 -0.000782278 1.50373e-07 -6.01442e-07 -4.77745e-07 3.30044e-06 1.8733e-09 2.64668e-08
3577 2 0.002 0.0277036 -0.13996 -0.000151965 8.12346e-09 -2.28724e-07 -4.20337e-07 2.9753e-06 6.45485e-10 6.96002e-09
3659 2 0.002 0.0311483 -0.125914 -0.00129069 1.50696e-07 -6.20581e-07 -8.92711e-08 6.14595e-06 5.0173e-09 3.54536e-08
3343 2 0.002 0.0172916 -0.129897 -0.000109744 2.34545e-07 -7.1202e-08 -1.21873e-07 8.37988e-06 9.48607e-10 1.09299e-08
3342 2 0.002 0.0172969 -0.133918 -6.42994e-06 1.32834e-07 -1.20635e-07 9.47578e-08 7.36211e-06 4.9732e-10 8.61678e-09
3420 2 0.002 0.02077 -0.139955 -3.62963e-05 -6.37874e-08 -1.66774e-07 -1.13573e-06 6.52886e-06 3.58848e-10 7.77542e-09
3736 2 0.002 0.0346175 -0.127939 -0.000823332 1.60092e-07 -6.29481e-07 -1.1638e-07 3.54662e-06 1.09655e-09 3.41465e-08
3814 2 0.002 0.0380727 -0.125949 -0.000753195 1.50505e-07 -6.1248e-07 -4.62045e-08 3.35014e-06 1.73284e-09 2.7881e-08
3968 2 0.002 0.0450074 -0.125975 -0.000371732 1.64339e-07 -4.23262e-07 1.3632e-07 0.007477 1.72584e-09 9.4075e-09
3735 2 0.002 0.0346305 -0.131956 -0.000365014 9.11409e-08 -4.16728e-07 7.17855e-07 2.44732e-06 1.43729e-09 3.30301e-08
3891 2 0.002 0.0415371 -0.127977 -0.000338721 1.99237e-07 -5.13972e-07 -2.1375e-07 3.11154e-06 1.71175e-09 2.3506e-08
3813 2 0.002 0.0380813 -0.12997 -0.000331843 1.76099e-07 -5.0672e-07 4.77888e-08 2.57269e-06 1.26761e-09 3.59233e-08
3967 2 0.002 0.0450056 -0.129991 -0.000102205 2.25103e-07 -3.23906e-07 1.48749e-07 8.11218e-06 1.7149e-09 1.1717e-08
4341 2 0.002 0.0624147 -0.132057 -0.000781962 -2.85828e-08 -1.86959e-07 -5.46516e-07 3.03872e-06 5.90619e-08 2.74109e-08
4342 2 0.002 0.0624464 -0.128087 -0.0011924 1.3527e-07 -3.9338e-08 5.79666e-07 6.00552e-06 5.28405e-08 1.14867e-07
4268 2 0.002 0.0589343 -0.130029 -0.000795256 1.12161e-07 -7.03208e-08 -2.20289e-07 2.72789e-06 1.30854e-08 1.60912e-08
4194 2 0.002 0.0554519 -0.128007 -0.000619963 2.02229e-07 -9.80441e-08 1.41585e-07 3.6905e-06 2.24022e-09 1.21475e-08
4267 2 0.002 0.0589114 -0.134002 -0.000347958 5.40669e-08 2.59175e-08 6.62856e-07 1.46077e-06 7.76502e-09 6.38926e-09
4269 2 0.002 0.0589482 -0.126032 -0.000846434 1.5037e-07 -3.41345e-08 -1.32575e-07 3.61571e-06 4.86649e-09 3.57027e-08
4192 2 0.002 0.0554299 -0.135992 -0.000128943 6.07679e-08 -7.69987e-08 -3.77971e-07 1.71988e-06 1.92264e-09 2.31158e-09
4119 2 0.002 0.05197 -0.125992 -0.000458849 1.85711e-07 -2.07909e-07 -5.78125e-08 6.89154e-06 1.38927e-09 8.65845e-09
4193 2 0.002 0.0554387 -0.132 -0.000425689 1.37885e-07 -9.22251e-08 -2.14875e-07 2.8093e-06 2.39353e-09 7.9697e-09
4043 2 0.002 0.0484836 -0.127987 -0.000293167 2.16085e-07 -2.75986e-07 7.75456e-08 0.00681543 1.17718e-09 7.14919e-09
4118 2 0.002 0.051961 -0.129995 -0.00035119 2.22098e-07 -1.4784e-07 1.42312e-07 6.4399e-06 1.05799e-09 8.08174e-09
4117 2 0.002 0.0519545 -0.133995 -0.000145854 1.82894e-07 -7.07124e-08 4.18741e-07 2.77365e-06 1.03694e-09 6.01072e-09
4042 2 0.002 0.0484786 -0.131994 -7.13847e-05 2.03887e-07 -2.1091e-07 -3.91439e-07 6.85298e-06 1.84809e-09 8.34131e-09
76 1 0.015 0.0667349 -0.131646 -0.00306002 -4.33003e-05 -2.61254e-05 -4.52875e-06 -7.58371e-06 0 1.87297e-06
4414 2 0.002 0.0659655 -0.130225 -0.00152514 -1.36281e-07 -1.53178e-07 -1.59017e-07 4.70425e-05 1.67587e-07 2.0485e-06
4415 2 0.002 0.0658894 -0.126097 -0.00112926 1.14895e-07 -3.19958e-09 -1.55233e-07 6.17389e-06 5.35707e-08 1.42061e-07
4486 2 0.002 0.0693192 -0.128065 -0.000729167 -4.73613e-08 -1.20799e-08 1.82973e-07 4.12227e-06 5.7615e-08 3.35712e-08
4557 2 0.002 0.0727557 -0.12601 -0.000227787 3.34569e-08 3.69375e-08 2.87669e-07 6.73045e-07 6.5356e-09 9.66328e-09
1479 2 0.002 -0.0658113 -0.122009 -0.000461225 1.75104e-07 -4.77619e-07 -2.57404e-07 3.32815e-06 3.53266e-09 1.30924e-08
1407 2 0.002 -0.0692811 -0.124002 -0.000344758 1.72697e-07 -3.64581e-07 8.94967e-07 3.59441e-06 4.9561e-09 2.50214e-09
1408 2 0.002 -0.06926 -0.119995 -9.92017e-05 2.23542e-07 -4.5509e-07 1.40763e-07 4.56052e-06 1.27203e-09 3.32847e-09
1480 2 0.002 -0.0657849 -0.117997 -0.000128573 2.67789e-07 -6.12524e-07 5.44473e-08 5.89074e-06 8.86073e-10 6.3362e-09
1337 2 0.002 -0.0727338 -0.121991 -3.71279e-05 1.15886e-07 -2.31944e-07 -2.24751e-07 3.05898e-06 1.30006e-09 1.41281e-09
1267 2 0.002 -0.0762058 -0.123993 1.82497e-05 3.86563e-08 -8.64573e-08 -1.60492e-07 2.35442e-06 6.3338e-10 1.01924e-09
1626 2 0.002 -0.0588532 -0.117979 -0.000648162 1.63627e-07 -6.73704e-07 -3.81664e-07 3.03839e-06 2.31452e-09 6.69934e-09
1851 2 0.002 -0.0484386 -0.119986 -0.00134944 -4.06544e-08 -2.51796e-07 1.76487e-07 7.72903e-06 5.10737e-09 9.44763e-09
1552 2 0.002 -0.0623341 -0.119992 -0.000519376 2.23893e-07 -6.48916e-07 1.32473e-07 5.7962e-06 2.09599e-09 6.54644e-09
1776 2 0.002 -0.0519092 -0.117975 -0.00127351 5.95624e-08 -4.48267e-07 4.00197e-07 7.75149e-06 5.33055e-09 1.2001e-08
1778 2 0.002 -0.0518863 -0.109981 -0.00106206 4.25387e-08 -4.39769e-07 1.55024e-07 6.51459e-06 4.8675e-09 4.77116e-08
1777 2 0.002 -0.0518998 -0.113971 -0.00131503 -2.13651e-08 -4.47913e-07 -8.5292e-08 5.20478e-06 6.8562e-09 2.38203e-08
1852 2 0.002 -0.0484312 -0.115987 -0.00176476 -9.67804e-08 -2.51773e-07 1.60859e-07 1.20291e-05 1.82777e-08 2.7278e-08
1853 2 0.002 -0.0484319 -0.111984 -0.00187729 -7.27507e-08 -3.04004e-07 -5.98229e-08 1.67487e-05 4.02821e-08 6.22205e-08
1700 2 0.002 -0.0553903 -0.119977 -0.000954657 6.89716e-08 -5.95297e-07 -7.28487e-07 3.00602e-06 2.98509e-09 7.57821e-09
1775 2 0.002 -0.051921 -0.121981 -0.00105697 5.30667e-08 -4.2462e-07 1.69842e-07 5.86615e-06 2.16345e-09 6.35373e-09
1850 2 0.002 -0.0484534 -0.123983 -0.000924842 -7.20537e-10 -2.04853e-07 2.50803e-07 5.70904e-06 1.56515e-09 5.39842e-09
1701 2 0.002 -0.055374 -0.115972 -0.000904153 1.24835e-07 -6.17753e-07 1.46536e-07 7.39869e-06 3.40457e-09 1.09318e-08
1702 2 0.002 -0.0553547 -0.111978 -0.000651906 4.82918e-08 -5.46036e-07 -3.29886e-07 9.43023e-06 2.17529e-09 2.1255e-08
1627 2 0.002 -0.0588292 -0.113982 -0.000358781 3.00825e-07 -7.65499e-07 8.60164e-07 7.30771e-06 1.76081e-09 9.64374e-09
1551 2 0.002 -0.0623607 -0.124005 -0.00069845 1.80868e-07 -5.27734e-07 1.63693e-07 3.23495e-06 4.12565e-09 1.28711e-08
1625 2 0.002 -0.058874 -0.121987 -0.000770497 1.75215e-07 -6.21551e-07 1.90188e-07 5.5611e-06 2.33046e-09 7.43201e-09
1699 2 0.002 -0.0554029 -0.123984 -0.000845985 1.62967e-07 -4.79228e-07 1.07145e-06 2.50294e-06 1.50246e-09 5.17724e-09
1553 2 0.002 -0.0623074 -0.11599 -0.00019521 2.67478e-07 -6.91021e-07 -2.66011e-08 6.25255e-06 1.34738e-09 5.99948e-09
24 1 0.015 -0.0439582 -0.112546 -0.00457381 1.09747e-05 -8.39955e-06 -2.6662e-06 -5.23533e-06 0 1.22363e-06
1929 2 0.002 -0.0449601 -0.110007 -0.00243249 -1.28692e-07 -1.41188e-07 -9.27334e-08 3.31501e-05 5.45579e-08 6.9146e-07
1926 2 0.002 -0.0449727 -0.121988 -0.00105617 -6.25969e-08 -1.3197e-07 -1.03176e-06 7.50865e-06 4.07606e-09 1.0289e-08
2160 2 0.002 -0.0345618 -0.112077 -0.000677852 -3.68391e-07 3.05702e-07 3.42852e-07 3.58587e-06 6.72353e-09 4.92928e-08
2083 2 0.002 -0.0380016 -0.110079 -0.00151889 -4.07527e-07 1.41364e-07 6.75729e-07 6.89278e-06 2.16976e-08 5.35712e-08
2081 2 0.002 -0.0380343 -0.118017 -0.000794747 -2.71858e-07 3.94167e-07 -3.65883e-08 5.80062e-06 4.42385e-09 4.88637e-08
1927 2 0.002 -0.0449533 -0.118004 -0.00167171 -1.86575e-07 1.69674e-07 1.23358e-06 1.18989e-05 1.78674e-08 2.63396e-08
1928 2 0.002 -0.0449507 -0.114029 -0.00245268 -1.54292e-07 -1.31581e-07 -2.47028e-07 2.48581e-05 5.12638e-08 2.97904e-07
2003 2 0.002 -0.0414958 -0.120001 -0.00106004 -2.18078e-07 2.26761e-07 1.52312e-07 4.84535e-06 5.79807e-09 2.14748e-08
2004 2 0.002 -0.0414685 -0.116031 -0.00174242 -2.6845e-07 2.24105e-07 3.53442e-07 1.58283e-05 4.01454e-08 6.09018e-08
2005 2 0.002 -0.04145 -0.112055 -0.00239125 -1.79744e-07 7.57858e-08 -6.02108e-08 3.03205e-05 5.36135e-08 5.49175e-07
2082 2 0.002 -0.038006 -0.114055 -0.00135088 -1.87443e-07 2.29697e-07 -3.48519e-07 7.94449e-06 1.86052e-08 1.01301e-07
2159 2 0.002 -0.0345935 -0.116034 -0.000260058 -2.35502e-07 4.2339e-07 -2.65349e-07 4.02598e-06 1.98271e-09 7.01312e-08
2080 2 0.002 -0.0380623 -0.121992 -0.000274408 -2.7676e-08 3.09307e-07 -1.375e-06 8.18052e-06 2.10598e-09 1.81256e-08
2002 2 0.002 -0.0415226 -0.123987 -0.000525236 -2.68499e-07 3.58425e-07 8.78516e-07 6.66115e-06 2.49024e-09 8.7161e-09
2238 2 0.002 -0.0311014 -0.110091 -0.000158839 -1.59322e-07 9.08157e-08 -4.90641e-07 4.16033e-06 4.67576e-09 2.08799e-08
3425 2 0.002 0.0207482 -0.119855 -0.000764731 8.3005e-08 7.8966e-08 -5.37576e-07 1.50126e-05 5.08421e-09 4.39848e-08
3426 2 0.002 0.0207557 -0.115858 -0.000526093 5.92229e-08 1.76048e-07 5.06765e-08 1.6671e-05 4.09657e-09 6.32755e-08
3503 2 0.002 0.0242027 -0.12186 -0.00142311 1.68464e-07 -2.2029e-07 -9.59207e-08 1.76595e-05 1.90347e-08 5.92098e-08
3504 2 0.002 0.0242009 -0.117849 -0.00145201 2.47064e-07 -1.61702e-07 4.71615e-07 2.20337e-05 3.66954e-08 9.65215e-08
3505 2 0.002 0.0242088 -0.113849 -0.000996431 1.30091e-07 -1.03199e-07 7.08287e-07 1.06201e-05 1.42538e-08 1.10985e-07
3582 2 0.002 0.0276631 -0.119879 -0.00229207 1.47974e-07 -4.89357e-07 -2.36917e-07 3.22595e-05 5.16803e-08 6.11432e-07
3583 2 0.002 0.0276643 -0.115848 -0.00200455 9.97546e-08 -4.01079e-07 -9.79544e-08 3.85298e-05 4.59214e-08 8.90514e-07
3584 2 0.002 0.0276629 -0.11185 -0.00103081 -7.64965e-08 -1.8298e-07 3.42852e-07 1.03386e-05 1.39865e-08 1.08736e-07
20 1 0.015 0.0298274 -0.119196 -0.00430389 1.19117e-05 -2.72875e-05 -8.94135e-06 -5.52299e-06 0 1.56347e-06
3581 2 0.002 0.0276698 -0.123889 -0.00160379 1.52659e-07 -4.51559e-07 2.40056e-07 1.53867e-05 2.08572e-08 4.41252e-08
3427 2 0.002 0.0207657 -0.11187 -4.36938e-05 -2.35835e-07 3.69073e-07 -5.25967e-07 7.81607e-06 2.78197e-09 5.73536e-08
3424 2 0.002 0.0207497 -0.123866 -0.000726639 1.4326e-07 -5.61347e-08 -5.96403e-07 1.23722e-05 3.99772e-09 2.78189e-08
3345 2 0.002 0.0172923 -0.121869 -0.000164751 2.73888e-07 1.58299e-07 -2.59972e-08 1.1613e-05 1.97863e-09 2.60755e-08
3506 2 0.002 0.0242179 -0.109858 -0.000255976 -8.99927e-08 6.9388e-08 6.18224e-07 7.92335e-06 4.55709e-09 5.60431e-08
3663 2 0.002 0.0311288 -0.109864 -0.000620798 -1.93914e-07 -6.14379e-08 -2.19366e-07 1.56104e-05 4.60235e-09 5.71946e-08
3662 2 0.002 0.0311283 -0.113854 -0.00147947 -1.30194e-07 -4.36487e-07 4.14358e-07 2.05089e-05 3.52197e-08 8.21555e-08
3660 2 0.002 0.031146 -0.121901 -0.0018536 8.1965e-08 -5.45711e-07 5.61852e-07 1.63116e-05 4.00261e-08 4.8703e-08
3661 2 0.002 0.0311561 -0.117869 -0.00227244 7.88362e-08 -5.70934e-07 -1.58819e-07 2.90204e-05 5.02394e-08 4.17769e-07
3737 2 0.002 0.0346107 -0.123922 -0.00127898 1.06845e-07 -6.41386e-07 2.4047e-07 6.08146e-06 4.66224e-09 3.51798e-08
3816 2 0.002 0.0380666 -0.117906 -0.00105057 4.28057e-08 -5.24484e-07 -8.83566e-07 1.11787e-05 4.56294e-09 1.9595e-08
3739 2 0.002 0.0345976 -0.115877 -0.00142076 -1.67039e-07 -5.35971e-07 4.37451e-07 1.62451e-05 1.72252e-08 4.58081e-08
3738 2 0.002 0.0346101 -0.119897 -0.00158747 -8.21057e-09 -6.08748e-07 4.41079e-07 1.46065e-05 1.9551e-08 3.92768e-08
3740 2 0.002 0.0345917 -0.111877 -0.000820956 -1.87725e-07 -2.20746e-07 -4.80456e-07 1.39014e-05 4.62216e-09 3.41549e-08
3818 2 0.002 0.0380641 -0.109903 -0.000244317 -3.07678e-07 -2.97415e-07 1.44884e-07 1.07829e-05 1.57443e-09 1.90615e-08
3817 2 0.002 0.0380608 -0.113899 -0.000740996 -1.91295e-07 -4.08554e-07 -3.51624e-07 1.17353e-05 3.28829e-09 2.30731e-08
3894 2 0.002 0.0415349 -0.115922 -0.000544234 -1.9501e-07 -4.9138e-07 1.1301e-07 9.38605e-06 1.52571e-09 1.38133e-08
3895 2 0.002 0.0415363 -0.111923 -0.000189092 -3.13639e-07 -3.93961e-07 1.82588e-07 4.91579e-06 1.14687e-09 1.60469e-08
3892 2 0.002 0.0415353 -0.123954 -0.000622152 8.67055e-08 -5.51235e-07 3.0789e-07 4.32393e-06 2.24763e-09 1.56356e-08
3893 2 0.002 0.0415355 -0.119934 -0.000704832 -4.52863e-08 -5.55638e-07 2.25681e-07 8.76695e-06 2.06377e-09 1.2831e-08
3815 2 0.002 0.0380688 -0.121926 -0.00103177 8.02649e-08 -6.19321e-07 -9.56708e-08 1.05302e-05 3.6696e-09 2.31741e-08
3969 2 0.002 0.0450099 -0.121958 -0.000477261 4.23725e-08 -4.71645e-07 -4.58312e-08 7.40065e-06 1.86045e-09 9.06466e-09
3970 2 0.002 0.0450108 -0.117945 -0.000376799 -1.1532e-07 -4.57331e-07 -2.31188e-08 3.93721e-06 1.35822e-09 9.78248e-09
3971 2 0.002 0.0450113 -0.113942 -8.70269e-05 -2.47848e-07 -3.8566e-07 -1.25195e-07 4.2986e-06 8.0282e-10 1.16177e-08
4343 2 0.002 0.0624165 -0.124049 -0.000891495 1.66745e-07 -2.33565e-08 4.37452e-07 4.02027e-06 1.27447e-08 3.49571e-08
4195 2 0.002 0.0554591 -0.124004 -0.000570448 1.45127e-07 -1.13605e-07 -7.77859e-08 8.20077e-06 2.12041e-09 1.58075e-08
4270 2 0.002 0.0589365 -0.122018 -0.00057766 9.78855e-08 1.43626e-08 -6.3009e-07 4.6069e-06 2.20454e-09 1.89785e-08
4344 2 0.002 0.0624003 -0.120026 -0.0004373 1.10103e-07 1.17459e-08 1.00899e-07 3.14707e-06 1.55342e-09 2.07315e-08
4271 2 0.002 0.0589259 -0.118009 -0.000170201 1.01113e-08 -3.56029e-08 -1.43469e-07 4.14301e-06 4.56687e-10 1.36889e-08
4196 2 0.002 0.0554543 -0.119997 -0.000312578 4.12456e-08 -1.68808e-07 4.18232e-07 3.92608e-06 1.1612e-09 1.24075e-08
4044 2 0.002 0.0484888 -0.123976 -0.000397283 1.24332e-07 -3.4454e-07 -2.32507e-07 0.00681716 1.60577e-09 7.51502e-09
4120 2 0.002 0.051974 -0.121984 -0.000386109 7.7613e-08 -2.50964e-07 2.46531e-07 7.1972e-06 1.56584e-09 9.85631e-09
4045 2 0.002 0.0484909 -0.119966 -0.000317488 -2.15875e-08 -3.68702e-07 -3.20747e-08 7.11973e-06 1.51908e-09 8.507e-09
4046 2 0.002 0.0484897 -0.115961 -5.07206e-05 -1.80416e-07 -3.4924e-07 -3.55007e-08 7.6777e-06 1.00263e-09 9.20335e-09
4121 2 0.002 0.0519715 -0.117979 -0.000129479 -7.24193e-08 -2.30743e-07 -2.45091e-07 7.41128e-06 1.16764e-09 9.62999e-09
4345 2 0.002 0.0623925 -0.116015 2.85846e-05 1.30326e-08 -3.68883e-08 4.23062e-07 4.07503e-06 4.32902e-10 1.33013e-08
4197 2 0.002 0.0554475 -0.115995 8.21965e-05 -1.06512e-07 -1.31065e-07 -7.95417e-08 7.72436e-06 5.11765e-10 1.07347e-08
4487 2 0.002 0.0693198 -0.124032 -0.000600501 1.51891e-07 6.59194e-08 -1.86624e-07 2.66263e-06 1.41651e-08 2.61241e-08
4416 2 0.002 0.0658666 -0.122045 -0.000638126 1.65376e-07 5.56634e-08 -9.65067e-08 3.76441e-06 3.62513e-09 4.61891e-08
4488 2 0.002 0.0693227 -0.120018 -0.00020842 1.3931e-07 4.04987e-08 4.966e-07 2.51476e-06 1.84174e-09 1.86657e-08
4417 2 0.002 0.0658611 -0.118023 -0.000158502 1.31995e-07 1.24233e-07 -5.64223e-07 2.88375e-06 1.06736e-09 1.92388e-08
4558 2 0.002 0.0727759 -0.122005 -8.01987e-05 1.48709e-07 6.98514e-08 3.55509e-07 1.6575e-06 3.18086e-09 1.57668e-08
637 2 0.002 -0.110825 -0.0959879 -0.000132936 4.12749e-08 7.31723e-08 4.76441e-07 8.11222e-06 1.19069e-09 1.49496e-08
694 2 0.002 -0.107353 -0.0979848 -0.000220728 1.14938e-08 4.58339e-08 -6.23981e-07 9.43974e-06 1.53339e-09 2.25447e-08
695 2 0.002 -0.107328 -0.0939755 -0.000402779 -1.94684e-08 1.59068e-07 -7.35674e-08 4.80838e-06 9.96065e-10 2.25308e-08
816 2 0.002 -0.100351 -0.0939486 -0.000919414 2.11762e-08 2.55959e-07 -9.66934e-08 1.2594e-05 2.47034e-09 4.16895e-08
754 2 0.002 -0.103854 -0.0959674 -0.000544445 6.44507e-08 1.97575e-07 3.22048e-07 5.35055e-06 1.02028e-09 3.07816e-08
878 2 0.002 -0.0968806 -0.0959392 -0.000877284 1.27994e-07 2.57919e-07 -2.28458e-07 1.23861e-05 3.24955e-09 3.46648e-08
877 2 0.002 -0.0969229 -0.0999471 -0.000459641 2.03097e-07 1.79229e-07 -3.85595e-07 3.26617e-06 1.48798e-09 2.27316e-08
753 2 0.002 -0.103887 -0.0999797 -0.000259445 7.30618e-08 8.66327e-08 -1.12626e-08 5.18378e-06 1.78084e-09 2.99149e-08
814 2 0.002 -0.100424 -0.101967 -0.000251101 1.15325e-07 9.55285e-08 -3.31865e-07 3.1298e-06 1.4921e-09 2.62935e-08
815 2 0.002 -0.100387 -0.0979564 -0.00057422 1.34883e-07 2.25185e-07 3.94802e-07 3.56511e-06 1.12685e-09 3.18223e-08
813 2 0.002 -0.100444 -0.105978 -7.31116e-05 1.10421e-07 8.01402e-08 4.26217e-07 3.22051e-06 9.68071e-10 1.00614e-08
876 2 0.002 -0.0969566 -0.103959 -0.000169755 2.09225e-07 1.67038e-07 1.13149e-07 3.68161e-06 1.18186e-09 1.20476e-08
875 2 0.002 -0.0969841 -0.107977 -2.88469e-05 1.49423e-07 7.53557e-08 -5.30126e-07 1.7819e-06 1.51407e-09 8.28414e-09
1072 2 0.002 -0.0864435 -0.0939405 -0.000252439 1.5384e-07 3.61499e-07 5.0573e-07 1.37567e-05 3.36485e-09 3.32929e-08
941 2 0.002 -0.0934222 -0.0979342 -0.000578892 2.01566e-07 3.79133e-07 8.45635e-07 1.14188e-05 2.90123e-09 2.43582e-08
942 2 0.002 -0.0933707 -0.0939254 -0.00110885 1.65305e-07 2.36155e-07 -5.59712e-07 1.59715e-05 9.58853e-09 4.70131e-08
1006 2 0.002 -0.0899268 -0.095932 -0.00053843 2.60744e-07 3.16976e-07 2.31476e-08 1.2935e-05 3.314e-09 2.5725e-08
940 2 0.002 -0.093465 -0.101948 -0.00020005 3.16147e-07 2.1715e-07 -3.1049e-07 4.32952e-06 1.53601e-09 1.39442e-08
1005 2 0.002 -0.0899763 -0.0999456 -0.000129339 3.57924e-07 2.93604e-07 8.11133e-08 5.04136e-06 1.41849e-09 1.65205e-08
1779 2 0.002 -0.051865 -0.106013 -0.00051797 -6.85104e-08 -2.42581e-07 -6.08352e-07 6.9053e-06 2.09309e-09 5.80548e-08
1855 2 0.002 -0.0483979 -0.10403 -0.000702944 -1.08966e-09 -1.99738e-07 2.571e-07 4.65519e-06 4.75524e-09 4.64294e-08
1854 2 0.002 -0.0484204 -0.107995 -0.00147129 1.49959e-07 -4.45162e-07 1.17654e-06 9.04942e-06 1.88799e-08 1.00395e-07
1703 2 0.002 -0.0553331 -0.108004 -0.000193268 6.7711e-08 -4.59002e-07 -3.02213e-07 5.75683e-06 1.19741e-09 3.92504e-08
1930 2 0.002 -0.0449507 -0.10603 -0.00148703 -1.17462e-07 -9.49359e-08 1.36429e-07 8.62842e-06 2.01985e-08 7.20344e-08
2006 2 0.002 -0.0414768 -0.108051 -0.00183017 -2.57406e-07 1.16165e-08 2.62207e-07 1.65197e-05 4.29591e-08 4.08153e-08
2084 2 0.002 -0.0379993 -0.106079 -0.00126687 -2.75388e-07 3.31012e-08 4.61658e-07 8.85613e-06 9.80626e-09 1.39568e-08
2162 2 0.002 -0.0345091 -0.104099 -0.000935631 -1.72494e-07 -5.13741e-08 -1.29336e-07 2.88747e-06 7.45772e-09 7.27475e-09
2007 2 0.002 -0.0414678 -0.10406 -0.00116186 -1.6908e-07 6.16776e-08 -1.17813e-07 1.10897e-05 6.99169e-09 2.16877e-08
2161 2 0.002 -0.0345378 -0.108098 -0.000894597 -1.77132e-07 8.81427e-08 -5.32588e-07 2.57373e-06 8.69905e-09 1.93892e-08
2164 2 0.002 -0.034438 -0.0960984 -0.000619896 2.50367e-07 -3.00156e-07 6.35393e-07 4.16278e-06 2.82896e-09 1.41126e-08
1931 2 0.002 -0.0449204 -0.102057 -0.000654482 -8.0631e-08 4.96508e-08 -3.24251e-07 6.25956e-06 3.47059e-09 3.36236e-08
2085 2 0.002 -0.0379763 -0.102079 -0.000901219 -1.07835e-07 2.54671e-08 -4.35176e-07 7.37279e-06 5.00001e-09 8.5873e-09
2163 2 0.002 -0.0344758 -0.100095 -0.000837387 -2.09513e-08 -1.62543e-07 -4.1941e-07 3.16609e-06 5.2301e-09 7.91651e-09
2008 2 0.002 -0.0414329 -0.100074 -0.000525448 2.91244e-08 -1.08126e-07 8.74535e-07 4.83135e-06 2.60193e-09 1.55789e-08
2086 2 0.002 -0.0379366 -0.0980854 -0.000484527 1.19873e-07 -1.51197e-07 7.75379e-07 4.00672e-06 2.694e-09 1.00849e-08
2087 2 0.002 -0.0378885 -0.094099 -3.21721e-05 7.28856e-08 8.86235e-08 -1.6152e-06 9.44474e-06 1.63366e-09 1.49538e-08
2009 2 0.002 -0.0413824 -0.0960919 8.47155e-05 2.27333e-08 1.7232e-07 -1.02654e-06 9.93538e-06 1.25465e-09 1.49609e-08
92 1 0.015 -0.0194908 -0.0961379 -0.00444021 8.4668e-08 -5.6382e-05 4.24984e-06 -7.60102e-06 0 1.62196e-06
2475 2 0.002 -0.0206379 -0.104175 -0.000257963 1.4607e-07 -8.01208e-07 -6.49052e-08 1.35504e-05 4.74649e-09 5.58761e-08
2240 2 0.002 -0.0310079 -0.10212 -0.000892614 -6.60756e-08 -2.76784e-07 5.79842e-07 5.93888e-06 7.56232e-09 6.82895e-09
2319 2 0.002 -0.0275044 -0.100156 -0.00115592 3.32471e-08 -6.56074e-07 -1.27559e-07 9.21304e-06 9.45519e-09 1.55101e-08
2318 2 0.002 -0.0275526 -0.104142 -0.000610364 -4.81661e-08 -5.11721e-07 -5.10011e-07 7.40289e-06 6.24763e-09 8.71353e-09
2396 2 0.002 -0.0241245 -0.10614 -2.12821e-05 -2.75883e-08 -3.0111e-07 7.64252e-07 1.04898e-05 3.28571e-09 2.63485e-08
2556 2 0.002 -0.0170964 -0.0982361 -0.00136839 -2.18575e-08 -7.82367e-07 6.1104e-07 1.98792e-05 4.92485e-08 7.35326e-08
2477 2 0.002 -0.0204923 -0.0963317 -0.00258243 9.22281e-08 -1.26708e-06 1.26641e-07 3.96304e-05 7.64823e-08 8.73134e-07
2398 2 0.002 -0.0240052 -0.098222 -0.00173581 1.50886e-07 -8.4648e-07 7.22379e-07 1.7151e-05 3.75449e-08 5.62229e-08
2476 2 0.002 -0.0205604 -0.100247 -0.00136455 9.47389e-08 -9.23765e-07 5.44305e-07 1.78423e-05 3.23382e-08 7.99039e-08
2241 2 0.002 -0.0309737 -0.098119 -0.00101911 9.9667e-08 -4.34197e-07 -3.08292e-07 3.96987e-06 5.58255e-09 1.36454e-08
2320 2 0.002 -0.0274793 -0.09616 -0.00145951 2.23803e-07 -6.83836e-07 1.92635e-07 1.26506e-05 9.02622e-09 3.29864e-08
2397 2 0.002 -0.0240545 -0.102189 -0.000924349 5.13684e-08 -8.2453e-07 -1.6631e-07 1.1328e-05 1.03007e-08 2.74003e-08
2555 2 0.002 -0.0171669 -0.102183 -0.000375614 1.13928e-07 -7.29984e-07 4.47585e-07 1.4941e-05 7.73225e-09 5.27033e-08
2242 2 0.002 -0.0309472 -0.0941206 -0.000958362 2.59794e-07 -4.77636e-07 -3.05496e-07 5.44462e-06 2.32129e-09 2.88961e-08
2399 2 0.002 -0.0239965 -0.0942238 -0.00209608 3.32853e-07 -9.25827e-07 4.96195e-07 2.21517e-05 5.42945e-08 1.12406e-07
2557 2 0.002 -0.0170534 -0.0942533 -0.00208057 1.02645e-07 -9.79719e-07 -6.04345e-07 3.02935e-05 5.36637e-08 3.37714e-07
2239 2 0.002 -0.0310513 -0.106115 -0.000589306 -2.30497e-07 -5.89993e-08 5.69144e-07 3.03847e-06 7.13153e-09 7.41104e-09
2317 2 0.002 -0.0276172 -0.108109 5.8905e-05 -8.46545e-08 -1.42232e-07 -8.98492e-08 8.39522e-06 4.11527e-09 1.14807e-08
2635 2 0.002 -0.0137247 -0.100142 -0.000173461 2.19278e-08 -5.88443e-07 1.13069e-07 1.49006e-05 4.78216e-09 4.02096e-08
2636 2 0.002 -0.0136866 -0.0961563 -0.000834439 -1.71693e-07 -4.88533e-07 3.33029e-07 1.76492e-05 1.42122e-08 4.96856e-08
2716 2 0.002 -0.0102998 -0.0940729 -0.000103315 -1.48285e-07 -1.4634e-07 -4.63818e-07 1.48696e-05 2.70438e-09 3.36129e-08
3585 2 0.002 0.0276791 -0.107862 -0.000131956 -2.14055e-07 2.54738e-07 -6.48469e-07 5.12593e-06 3.15474e-09 6.55097e-08
3741 2 0.002 0.0345975 -0.107886 -0.000131275 -2.29391e-07 1.76869e-09 -6.12398e-07 1.18829e-05 1.5657e-09 2.7972e-08
4967 2 0.002 0.093604 -0.0939735 -0.000445537 1.09944e-07 6.146e-09 1.22217e-07 3.7194e-06 1.43166e-10 8.92333e-09
4966 2 0.002 0.0935927 -0.0979811 -0.00017257 1.2539e-08 -3.30032e-08 -2.5311e-07 2.06347e-06 4.85614e-10 9.98193e-09
4902 2 0.002 0.0901423 -0.0959702 3.37423e-05 1.48164e-07 4.76402e-09 3.12032e-07 3.39799e-06 1.80184e-10 1.02736e-08
5091 2 0.002 0.100496 -0.101996 -0.000353845 -1.30924e-07 -1.1126e-07 3.76293e-07 8.99603e-07 5.50492e-09 6.04273e-09
5153 2 0.002 0.103994 -0.100042 -0.000742507 -2.91764e-07 -5.62937e-07 -1.51798e-06 3.82668e-06 3.49342e-08 2.03959e-08
5213 2 0.002 0.107532 -0.0981657 -0.00137256 -4.22809e-07 -4.9829e-07 2.78295e-07 2.44765e-05 1.00549e-07 5.0965e-07
5030 2 0.002 0.0970634 -0.0959952 -0.000671795 -9.09509e-09 -2.65495e-08 2.55094e-07 7.33034e-06 9.79203e-10 9.64569e-09
5092 2 0.002 0.100528 -0.0980207 -0.000832393 -1.20681e-07 -1.13372e-07 6.60042e-07 7.16191e-06 7.19366e-09 1.15677e-08
5093 2 0.002 0.100544 -0.0940324 -0.00116412 -1.70707e-07 -1.39604e-07 -5.47685e-07 1.01698e-05 3.57491e-09 2.2331e-08
5154 2 0.002 0.10403 -0.096089 -0.00135943 -3.08097e-07 -3.23489e-07 2.48394e-07 1.37102e-05 3.96957e-08 4.18585e-08
5214 2 0.002 0.107526 -0.0941439 -0.00170331 -2.71523e-07 -6.73588e-07 1.1257e-06 2.50436e-05 4.04456e-08 4.98412e-07
5029 2 0.002 0.097043 -0.0999903 -0.000351632 -1.07306e-07 -1.10126e-07 -4.47593e-07 1.61653e-06 2.43015e-09 8.94772e-09
68 1 0.015 0.109081 -0.0977159 -0.00300032 -5.82359e-05 -8.25758e-05 -9.21098e-07 -6.0503e-06 0 9.94223e-07
5090 2 0.002 0.100466 -0.105998 -7.20746e-05 1.53944e-08 -4.49158e-08 7.66663e-09 -9.1024e-08 2.44972e-09 1.57738e-09
5028 2 0.002 0.0970208 -0.10399 -4.89658e-05 -2.20399e-08 -7.01729e-08 -1.14405e-07 5.6564e-07 1.58268e-09 5.55514e-09
5271 2 0.002 0.110946 -0.0960866 -0.000952733 7.45476e-07 -9.22298e-07 -4.47987e-06 6.40804e-06 6.82676e-08 1.53373e-07
638 2 0.002 -0.110811 -0.0919861 -0.000197297 -5.74307e-08 1.40664e-07 -2.37458e-07 8.90428e-06 1.37061e-09 1.99386e-08
639 2 0.002 -0.110802 -0.0879824 -0.000135151 -1.56358e-07 2.4933e-07 -1.32657e-07 4.69958e-06 1.32341e-09 2.09061e-08
582 2 0.002 -0.114291 -0.0899937 -1.65545e-05 -3.98983e-08 9.19925e-08 -1.82747e-07 6.50618e-06 1.60816e-09 8.54616e-09
881 2 0.002 -0.0968015 -0.0839254 -0.00134331 -3.69072e-07 3.44927e-07 -2.17403e-07 1.89641e-05 2.85975e-08 7.3113e-08
880 2 0.002 -0.0968116 -0.0879214 -0.0016072 -1.42702e-07 3.27851e-07 1.38483e-07 1.97195e-05 4.04714e-08 8.23633e-08
696 2 0.002 -0.107315 -0.0899716 -0.000466144 -1.06874e-07 2.55815e-07 2.10977e-07 3.46615e-06 8.33941e-10 2.55016e-08
697 2 0.002 -0.107305 -0.0859747 -0.000366638 -2.65806e-07 3.55724e-07 -1.2105e-07 2.65435e-06 6.8999e-10 2.74984e-08