ITEM: TIMESTEP
400000
ITEM: NUMBER OF ATOMS
5843
ITEM: BOX BOUNDS ff ff ff
-2.5000000000000000e-01 2.5000000000000000e-01
-2.5000000000000000e-01 2.5000000000000000e-01
-1.0000000000000001e-01 1.0000000000000001e-01
ITEM: ATOMS id type radius x y z fx fy fz v_pressure c_bendingE c_stretchingE
2545 2 0.002 -0.0173246 -0.141976 -0.000266804 -9.89548e-14 -3.30454e-12 -5.70381e-12 3.05266e-06 2.58397e-09 9.37608e-09
2465 2 0.002 -0.0207817 -0.143989 -1.20065e-05 -9.60983e-13 -3.00214e-13 2.58571e-12 3.13113e-06 2.34598e-09 1.74167e-09
2703 2 0.002 -0.0103959 -0.145981 -0.000198902 1.27284e-12 -2.45927e-12 -5.26727e-12 6.54894e-06 2.24855e-09 1.05919e-08
2862 2 0.002 -0.00347462 -0.145981 -0.000198571 2.5005e-12 -1.20127e-12 -8.25794e-13 3.28784e-06 2.51226e-09 1.07948e-08
2863 2 0.002 -0.00349053 -0.141967 -0.000597638 5.16209e-12 -1.95858e-12 5.75636e-12 2.65085e-06 1.21856e-09 1.69814e-08
2783 2 0.002 -0.00694343 -0.143975 -0.000416468 3.82061e-12 -3.26005e-12 -1.38099e-12 2.70226e-06 2.54908e-09 2.00502e-08
2704 2 0.002 -0.0104109 -0.141964 -0.000609722 4.24083e-12 -4.3764e-12 1.01824e-11 7.8288e-06 1.34045e-09 1.64135e-08
2624 2 0.002 -0.0138629 -0.143978 -0.000284443 1.10573e-12 -3.45208e-12 -6.42834e-12 3.42711e-06 2.53701e-09 1.19828e-08
2942 2 0.002 -1.92474e-05 -0.143977 -0.000247144 4.15788e-12 -8.22607e-13 -1.08215e-11 2.3193e-06 2.77757e-09 1.23497e-08
3022 2 0.002 0.00344456 -0.141981 -0.000133611 1.49564e-12 3.84216e-12 4.88076e-12 3.15181e-06 3.35537e-09 3.64617e-08
3655 2 0.002 0.03119 -0.14198 -0.000252253 -9.6203e-12 -4.86674e-12 2.06391e-12 6.24349e-06 1.97724e-09 8.66982e-09
3340 2 0.002 0.0173055 -0.141992 -0.000100243 -1.17902e-11 4.31643e-12 1.07392e-11 6.07386e-06 1.19225e-09 6.66793e-09
3498 2 0.002 0.0242553 -0.141984 -0.000256188 -1.45806e-11 -1.42416e-12 -4.68813e-12 2.7848e-06 9.40794e-10 6.10595e-09
3419 2 0.002 0.0207846 -0.143987 -9.5063e-05 -7.77719e-12 6.5957e-13 -4.45865e-13 4.21458e-06 8.06258e-10 2.78498e-09
3576 2 0.002 0.0277183 -0.143985 -0.000138457 -6.97453e-12 -2.10657e-12 -6.1385e-12 4.98072e-06 1.13575e-09 4.99183e-09
63 1 0.015 -0.0572089 -0.134807 -0.00109052 -6.56642e-11 -6.9098e-11 -2.50313e-11 -1.94828e-06 0 4.20581e-07
1622 2 0.002 -0.0588966 -0.133986 -8.41756e-05 1.06073e-12 -4.46475e-12 9.87105e-12 1.9238e-06 6.30887e-09 1.18133e-08
1697 2 0.002 -0.0554458 -0.131989 -9.92056e-05 2.91784e-12 -7.22405e-12 -1.43517e-12 7.49749e-06 1.11449e-08 4.42173e-07
1696 2 0.002 -0.0554255 -0.135992 -6.53102e-05 1.82557e-12 -2.32463e-12 1.66352e-12 2.68286e-06 6.30935e-09 1.28835e-09
2547 2 0.002 -0.0173606 -0.133942 -0.000845434 3.06108e-12 -9.25052e-12 -5.2126e-12 9.53605e-06 2.10076e-09 1.74772e-08
2468 2 0.002 -0.0208091 -0.131951 -0.00038446 3.26291e-12 -2.96133e-12 -3.07305e-12 4.44241e-06 1.76946e-09 1.55497e-08
2548 2 0.002 -0.0173765 -0.129924 -0.00104012 5.2683e-12 -1.14649e-11 -1.66401e-12 1.17477e-05 4.11051e-09 2.58413e-08
2549 2 0.002 -0.0173882 -0.125912 -0.00102561 9.34657e-12 -1.39918e-11 1.16619e-11 1.29557e-05 5.92401e-09 3.04247e-08
2546 2 0.002 -0.0173424 -0.137959 -0.000565441 1.91565e-12 -5.77259e-12 2.26529e-12 3.81864e-06 1.19433e-09 1.16966e-08
2467 2 0.002 -0.0208017 -0.135967 -0.000263344 2.19106e-12 -1.80119e-12 7.60255e-12 3.80928e-06 1.11821e-09 1.34092e-08
2469 2 0.002 -0.0208154 -0.127939 -0.000373901 3.55613e-12 -3.37641e-12 -1.10998e-11 9.86367e-06 1.71918e-09 1.70442e-08
2466 2 0.002 -0.0207921 -0.139979 -0.00010438 -9.97065e-13 -1.34876e-12 -3.50786e-12 5.82368e-06 9.85333e-10 7.69687e-09
85 1 0.015 -0.00911124 -0.126133 -0.00488718 7.26202e-11 3.77596e-10 8.32392e-11 -5.78229e-06 0 1.21634e-06
2708 2 0.002 -0.0105469 -0.12587 -0.00277563 6.52619e-12 -1.76022e-11 -3.70398e-12 3.50151e-05 5.95129e-08 6.45727e-07
2867 2 0.002 -0.00356408 -0.125908 -0.00220734 4.77205e-12 -6.92084e-12 4.31121e-12 1.90051e-05 3.40422e-08 5.91483e-08
2627 2 0.002 -0.0139277 -0.131923 -0.00151206 6.75674e-12 -1.36549e-11 4.3005e-12 1.28487e-05 6.02085e-09 2.89194e-08
2628 2 0.002 -0.0139568 -0.127898 -0.00183196 6.81276e-12 -1.69476e-11 -1.26795e-12 1.75055e-05 2.54915e-08 5.64369e-08
2706 2 0.002 -0.0104594 -0.133932 -0.00164847 7.42574e-12 -1.15834e-11 8.07292e-12 1.30563e-05 5.35332e-09 3.64492e-08
2707 2 0.002 -0.0104988 -0.12991 -0.00224162 8.04135e-12 -1.45564e-11 4.99828e-12 1.88648e-05 4.34507e-08 6.17279e-08
2786 2 0.002 -0.00701185 -0.131929 -0.00210319 7.37221e-12 -9.29469e-12 8.70359e-12 8.49307e-06 1.83318e-08 6.75644e-08
2787 2 0.002 -0.00704581 -0.127903 -0.00280128 6.75995e-12 -1.24658e-11 -6.24333e-12 3.13378e-05 5.00488e-08 4.68308e-07
2866 2 0.002 -0.00355493 -0.129929 -0.00211593 5.65797e-12 -4.96707e-12 5.9882e-13 8.60388e-06 1.50504e-08 7.20766e-08
2946 2 0.002 -8.59043e-05 -0.12794 -0.00172236 1.76796e-12 4.25935e-12 1.15407e-11 1.24966e-05 5.71845e-09 3.08387e-08
2784 2 0.002 -0.00696107 -0.139959 -0.000911069 6.05003e-12 -5.99147e-12 -2.22903e-13 4.63941e-06 1.34635e-09 2.44966e-08
2625 2 0.002 -0.0138769 -0.139959 -0.000671794 3.63176e-12 -5.71092e-12 1.06167e-11 7.75467e-06 1.42274e-09 1.45005e-08
2705 2 0.002 -0.0104313 -0.137949 -0.00110242 4.9892e-12 -1.12628e-11 -1.49764e-11 9.73284e-06 1.9537e-09 2.37982e-08
2785 2 0.002 -0.00698343 -0.135945 -0.00146826 7.2747e-12 -8.04646e-12 5.05605e-12 5.96557e-06 3.19999e-09 3.81406e-08
2864 2 0.002 -0.00350795 -0.137958 -0.00109421 6.90016e-12 -4.50461e-12 -6.11445e-12 2.52491e-06 1.34042e-09 2.91383e-08
2626 2 0.002 -0.0138997 -0.135942 -0.00109441 4.19891e-12 -1.13568e-11 -5.47429e-12 9.81902e-06 1.94778e-09 1.94317e-08
2865 2 0.002 -0.00353088 -0.133948 -0.00163328 6.50253e-12 -4.1239e-12 2.43974e-12 4.2315e-06 4.61508e-09 4.31733e-08
2945 2 0.002 -7.59713e-05 -0.131953 -0.00152351 4.21393e-12 3.05021e-12 -5.56596e-12 5.88265e-06 3.46962e-09 3.91752e-08
2944 2 0.002 -5.50892e-05 -0.135963 -0.00110268 4.74764e-12 1.8053e-12 -3.52686e-12 2.5652e-06 1.19216e-09 3.34486e-08
2943 2 0.002 -3.24907e-05 -0.139969 -0.000637002 4.33647e-12 1.60344e-12 5.8395e-12 3.04307e-06 8.6388e-10 2.64038e-08
3023 2 0.002 0.0034193 -0.137976 -0.000567217 5.80292e-13 7.85485e-12 7.08308e-12 3.06538e-06 1.79239e-09 2.94877e-08
3103 2 0.002 0.00687815 -0.135989 -0.000556435 -4.91716e-12 1.46316e-11 8.08189e-13 4.24091e-06 1.53751e-09 1.97581e-08
3104 2 0.002 0.00687079 -0.131985 -0.000915564 -5.24087e-12 1.89923e-11 -7.67363e-12 3.70928e-06 2.19144e-09 1.27088e-08
3024 2 0.002 0.00340128 -0.133973 -0.00100543 4.45015e-13 1.02629e-11 -6.45228e-12 2.30035e-06 1.64725e-09 2.60613e-08
3184 2 0.002 0.0103504 -0.129992 -0.000869714 -1.04306e-11 2.47559e-11 -7.38153e-12 0.0058622 2.4505e-09 6.28397e-09
3263 2 0.002 0.0138308 -0.131996 -0.000753213 -1.70908e-11 2.11904e-11 2.4562e-13 5.71228e-06 1.45035e-09 5.71334e-09
3183 2 0.002 0.0103501 -0.133995 -0.00063057 -1.16499e-11 2.00928e-11 1.44706e-12 6.82174e-06 1.57968e-09 8.48577e-09
3025 2 0.002 0.0033919 -0.129966 -0.00128465 -3.60518e-13 1.37132e-11 -2.09663e-12 9.03967e-06 2.8803e-09 1.91781e-08
3026 2 0.002 0.00339128 -0.125958 -0.00127902 9.42093e-13 1.53196e-11 -8.53421e-12 9.0512e-06 3.16628e-09 1.50674e-08
3105 2 0.002 0.00687012 -0.127978 -0.0010462 -4.69242e-12 2.28621e-11 2.0795e-12 6.81702e-06 2.99408e-09 8.96877e-09
3264 2 0.002 0.0138353 -0.127993 -0.000875436 -1.32302e-11 2.49372e-11 -3.47238e-12 0.00504728 2.65425e-09 5.11448e-09
3185 2 0.002 0.0103552 -0.125988 -0.000853527 -7.22363e-12 2.75613e-11 1.62769e-12 5.42518e-06 3.31275e-09 5.74515e-09
3102 2 0.002 0.00689243 -0.139994 -6.34904e-05 -1.7794e-12 8.00257e-12 -9.125e-12 5.2205e-06 1.16315e-08 3.46582e-08
3182 2 0.002 0.0103546 -0.137997 -0.000225422 -9.11516e-12 1.23711e-11 -1.17278e-11 8.21169e-06 2.02204e-09 1.38566e-08
3262 2 0.002 0.013829 -0.135995 -0.000450447 -1.69847e-11 1.47956e-11 -9.17474e-12 6.49613e-06 8.583e-10 6.82224e-09
3261 2 0.002 0.0138308 -0.139994 -7.38005e-05 -1.18847e-11 9.76417e-12 6.25763e-12 7.10213e-06 4.04368e-09 8.27962e-09
3501 2 0.002 0.0242741 -0.129977 -0.00123507 -2.07548e-11 -5.27481e-12 6.88967e-12 0.00686351 1.28322e-09 1.06715e-08
3579 2 0.002 0.0277466 -0.131969 -0.00125037 -2.1327e-11 -1.32616e-11 1.29608e-11 7.72129e-06 8.56499e-10 1.26021e-08
3423 2 0.002 0.0207983 -0.127985 -0.00112242 -1.75433e-11 6.26372e-12 7.20727e-14 0.00583817 1.93285e-09 8.10378e-09
3421 2 0.002 0.0207869 -0.135985 -0.000651681 -2.47438e-11 5.20393e-12 9.69855e-12 6.09466e-06 2.94298e-10 7.51689e-09
3499 2 0.002 0.0242607 -0.13798 -0.000587534 -2.32542e-11 -1.42178e-12 1.24339e-11 6.2343e-06 2.33995e-10 7.30579e-09
3577 2 0.002 0.0277292 -0.139976 -0.000456796 -1.7842e-11 -5.06112e-12 7.20738e-12 6.07677e-06 6.11456e-10 7.02328e-09
3343 2 0.002 0.0173148 -0.129993 -0.000913922 -1.95336e-11 1.64855e-11 -3.05848e-12 0.00541944 1.59606e-09 6.30827e-09
3344 2 0.002 0.0173211 -0.125991 -0.000941542 -1.21394e-11 1.80604e-11 4.0448e-12 2.50459e-06 2.83936e-09 5.89503e-09
3422 2 0.002 0.0207927 -0.131987 -0.000944427 -2.43797e-11 5.36602e-12 -7.12603e-12 0.00606985 8.20708e-10 8.15593e-09
3500 2 0.002 0.0242678 -0.133979 -0.000936133 -2.60537e-11 -4.81552e-12 -9.57835e-12 0.00666373 4.76763e-10 9.21338e-09
3578 2 0.002 0.0277387 -0.135972 -0.00085228 -2.3722e-11 -1.1565e-11 -1.44673e-11 7.02999e-06 4.70553e-10 9.6241e-09
3502 2 0.002 0.0242791 -0.125972 -0.00139927 -1.14262e-11 -7.55815e-12 4.45765e-12 0.00704712 2.50066e-09 1.18134e-08
3580 2 0.002 0.0277524 -0.127962 -0.00158427 -1.40553e-11 -1.82949e-11 1.94592e-12 8.39727e-06 2.03002e-09 1.56988e-08
3342 2 0.002 0.01731 -0.133992 -0.000688987 -2.23081e-11 1.36482e-11 5.61134e-12 5.9219e-06 6.26575e-10 6.86384e-09
3656 2 0.002 0.0312035 -0.13797 -0.000668409 -1.75939e-11 -1.1899e-11 -5.5688e-12 7.43954e-06 7.04838e-10 1.1517e-08
3657 2 0.002 0.0312135 -0.133964 -0.0011428 -1.89292e-11 -1.6485e-11 1.26477e-11 8.38928e-06 6.08203e-10 1.52257e-08
3658 2 0.002 0.0312214 -0.129956 -0.00161155 -1.45873e-11 -2.47462e-11 -4.84553e-12 3.17495e-06 1.28465e-09 1.98884e-08
3341 2 0.002 0.0173065 -0.13799 -0.000375095 -2.00891e-11 8.13395e-12 -5.10592e-12 6.1698e-06 6.51424e-10 7.02215e-09
3420 2 0.002 0.0207826 -0.139984 -0.000340008 -1.967e-11 1.59367e-12 -1.11196e-11 5.6978e-06 4.37607e-10 5.83972e-09
3659 2 0.002 0.031226 -0.125942 -0.0020151 -4.79427e-12 -2.8806e-11 3.06036e-12 5.52032e-06 3.41347e-09 2.61742e-08
3734 2 0.002 0.0346723 -0.135965 -0.000902429 -1.3754e-11 -1.52487e-11 4.13724e-12 9.03824e-06 6.81943e-10 2.14929e-08
3889 2 0.002 0.0415836 -0.135966 -0.000794582 -2.68899e-12 -1.13666e-11 -4.65241e-13 4.86862e-06 1.3147e-09 2.68215e-08
3966 2 0.002 0.0450436 -0.133966 -0.000930415 1.69923e-12 -1.01941e-11 1.06263e-12 3.37668e-06 9.36166e-10 2.9987e-08
3733 2 0.002 0.03466 -0.139976 -0.000371888 -9.23358e-12 -8.56651e-12 -9.01038e-12 8.35748e-06 3.77732e-09 1.78905e-08
3811 2 0.002 0.0381216 -0.137974 -0.000561712 -6.87838e-12 -9.29556e-12 1.12107e-12 1.01862e-05 3.92927e-09 3.4752e-08
3888 2 0.002 0.0415709 -0.139979 -0.000263377 -9.85161e-13 -4.58612e-12 -4.80184e-12 8.45603e-06 3.62028e-09 1.71955e-08
3965 2 0.002 0.0450369 -0.137979 -0.00038923 1.96427e-13 -4.67004e-12 8.67936e-14 4.59938e-06 4.08168e-09 2.18493e-08
3891 2 0.002 0.0416078 -0.127936 -0.0020556 4.29648e-12 -2.33818e-11 2.64747e-12 7.07415e-06 3.12357e-09 5.52179e-08
3736 2 0.002 0.0346909 -0.12794 -0.00202453 -4.99323e-12 -3.04051e-11 -7.20808e-13 6.12716e-06 2.09749e-09 3.47059e-08
3813 2 0.002 0.0381467 -0.129945 -0.00180133 -3.222e-12 -2.69931e-11 -5.97963e-12 6.24637e-06 1.69379e-09 4.35637e-08
3890 2 0.002 0.0415954 -0.131954 -0.00140768 -5.04505e-13 -1.83574e-11 8.99479e-13 3.80109e-06 1.17983e-09 3.83991e-08
3967 2 0.002 0.0450524 -0.129951 -0.00151116 5.4525e-12 -1.50877e-11 2.40905e-13 2.88746e-06 1.44671e-09 3.74126e-08
3735 2 0.002 0.0346828 -0.131955 -0.00146688 -1.18749e-11 -2.34292e-11 2.68798e-12 3.42784e-06 8.05056e-10 2.66592e-08
3812 2 0.002 0.0381352 -0.13396 -0.00117356 -7.54418e-12 -1.72972e-11 7.81793e-12 1.0649e-05 6.14681e-10 3.43288e-08
3968 2 0.002 0.045066 -0.125933 -0.00208896 9.36978e-12 -1.79396e-11 -4.54671e-12 4.74385e-06 4.28593e-09 4.80302e-08
3814 2 0.002 0.0381565 -0.125923 -0.00245067 3.82372e-12 -2.89797e-11 1.17636e-11 1.60708e-05 5.47121e-09 6.31773e-08
4042 2 0.002 0.0484972 -0.131966 -0.000938443 4.70744e-12 -5.76777e-12 1.14157e-11 2.37837e-06 1.41852e-09 2.62982e-08
4041 2 0.002 0.0484961 -0.135981 -0.000428955 2.81925e-12 -4.3909e-12 -7.14806e-12 2.38732e-06 4.61166e-09 2.62317e-08
4043 2 0.002 0.0485062 -0.127951 -0.00142053 9.84927e-12 -1.01099e-11 -9.24304e-12 2.71313e-06 1.75778e-09 2.95616e-08
4119 2 0.002 0.0519587 -0.125954 -0.0011338 1.03388e-11 -2.51772e-12 -7.83712e-12 3.23775e-06 1.66105e-09 2.29894e-08
4118 2 0.002 0.0519518 -0.129966 -0.000811308 6.76698e-12 -2.03153e-12 8.73699e-12 4.19479e-06 1.41533e-09 1.74693e-08
4194 2 0.002 0.0554088 -0.127972 -0.000522706 7.17427e-12 1.6684e-12 1.72839e-12 7.66367e-06 9.75031e-10 1.68594e-08
4117 2 0.002 0.051948 -0.13398 -0.000423049 5.39341e-12 -2.85073e-12 -8.69402e-12 2.58767e-06 3.74505e-09 1.77336e-08
4192 2 0.002 0.0554153 -0.135987 -0.00011651 2.37912e-12 -4.45566e-13 1.44011e-12 2.25383e-06 3.32471e-09 4.64532e-09
4193 2 0.002 0.0554075 -0.131976 -0.000301012 5.78997e-12 -1.87464e-13 -4.2741e-12 2.94951e-06 2.62193e-09 8.29346e-09
4269 2 0.002 0.0588624 -0.125986 -0.000144144 5.25989e-12 4.3756e-12 2.5996e-12 6.91044e-06 1.89756e-09 1.49005e-08
938 2 0.002 -0.0935228 -0.109989 -0.000321454 -5.55818e-14 3.02521e-12 -4.57679e-12 1.59163e-06 3.40098e-09 1.07928e-08
1068 2 0.002 -0.0865942 -0.109994 -0.000341474 1.37131e-12 7.57573e-12 -6.15293e-12 2.21792e-06 2.58019e-09 1.36559e-08
1002 2 0.002 -0.0900636 -0.111987 -0.000199276 -3.58053e-13 5.04349e-12 -6.43186e-12 2.11623e-06 3.27791e-09 4.8314e-09
2470 2 0.002 -0.0208148 -0.123937 -0.000169722 7.37085e-12 -4.39377e-12 1.49816e-12 5.36035e-06 1.33712e-09 2.3577e-08
2550 2 0.002 -0.0173774 -0.121915 -0.000694237 7.48021e-12 -1.53682e-11 1.3018e-12 1.30993e-05 3.64406e-09 3.77915e-08
2551 2 0.002 -0.017359 -0.117926 -0.000168152 9.08276e-12 -1.84261e-11 1.11381e-11 1.13185e-05 2.04635e-09 2.54415e-08
2630 2 0.002 -0.0139307 -0.119897 -0.00103896 6.6248e-12 -2.26271e-11 2.27198e-13 1.44302e-05 6.33476e-09 4.1986e-08
2788 2 0.002 -0.00704633 -0.123864 -0.00259147 6.08949e-12 -1.56758e-11 9.63513e-12 3.16042e-05 4.83367e-08 4.54042e-07
2789 2 0.002 -0.00701365 -0.119894 -0.00161094 3.67515e-12 -2.16516e-11 1.40167e-11 1.78894e-05 1.53887e-08 6.87913e-08
2868 2 0.002 -0.00355616 -0.121908 -0.00176102 4.8546e-12 -8.44105e-12 4.74426e-13 1.76054e-05 1.29339e-08 6.47596e-08
2710 2 0.002 -0.0104627 -0.117899 -0.00103629 3.15683e-12 -2.06758e-11 -1.92528e-11 1.46511e-05 5.34147e-09 4.83396e-08
2629 2 0.002 -0.0139588 -0.123887 -0.00167849 5.21755e-12 -1.91714e-11 -8.29451e-12 1.85195e-05 2.39881e-08 7.38067e-08
2709 2 0.002 -0.0105011 -0.121874 -0.00192442 4.00851e-12 -1.95752e-11 -1.19989e-11 2.03532e-05 4.11399e-08 7.93908e-08
2947 2 0.002 -8.48877e-05 -0.123934 -0.0015472 3.8004e-12 4.27241e-12 -5.66919e-12 1.28283e-05 5.02e-09 3.09092e-08
2869 2 0.002 -0.00352948 -0.117936 -0.000994255 2.57396e-12 -9.62709e-12 -8.394e-12 1.33723e-05 3.80303e-09 3.5219e-08
2948 2 0.002 -7.03756e-05 -0.119953 -0.00102317 1.62473e-12 1.45996e-12 3.08634e-12 1.24437e-05 2.74371e-09 3.58106e-08
2790 2 0.002 -0.00698514 -0.115926 -0.000713442 1.97125e-12 -2.18107e-11 1.16606e-12 1.30543e-05 3.29029e-09 3.84335e-08
2631 2 0.002 -0.0139005 -0.115914 -0.000316499 6.9894e-12 -2.53948e-11 6.39262e-12 1.18636e-05 2.1448e-09 3.09711e-08
2711 2 0.002 -0.0104331 -0.113922 -0.000209285 3.1818e-12 -2.44239e-11 -8.71282e-12 5.93333e-06 2.06447e-09 3.64319e-08
2870 2 0.002 -0.00350442 -0.113968 -0.000218723 -8.45751e-13 -1.29955e-11 -4.32677e-12 1.0805e-05 1.67596e-09 2.10176e-08
2949 2 0.002 -4.42547e-05 -0.115987 -0.00033266 -4.17171e-13 -2.25438e-13 -3.33781e-12 5.49742e-06 1.22033e-09 2.55691e-08
3107 2 0.002 0.00688944 -0.120004 -0.000381677 -1.79059e-13 2.39162e-11 -6.33959e-12 7.99699e-06 2.0503e-09 1.57591e-08
3266 2 0.002 0.0138601 -0.120023 -0.000246531 -8.69524e-13 2.42853e-11 4.81133e-12 5.96476e-06 4.41607e-09 6.85687e-09
3186 2 0.002 0.010366 -0.122 -0.000518391 -2.95039e-12 2.71428e-11 5.84946e-12 5.9265e-06 3.37784e-09 7.39024e-09
3027 2 0.002 0.00339953 -0.121966 -0.000940549 -5.17834e-13 1.3058e-11 1.15909e-11 4.78702e-06 2.41193e-09 2.03456e-08
3106 2 0.002 0.00687586 -0.123978 -0.000871415 -2.38007e-12 2.41976e-11 7.23727e-13 3.4744e-06 2.96824e-09 9.59927e-09
3265 2 0.002 0.0138437 -0.123995 -0.000724749 -7.03905e-12 2.61221e-11 2.28148e-13 4.92931e-06 3.70704e-09 5.18729e-09
3028 2 0.002 0.00341847 -0.118001 -0.000342036 -1.58123e-12 9.81777e-12 1.51728e-11 5.08581e-06 1.34533e-09 2.7072e-08
3583 2 0.002 0.0277685 -0.115972 -0.0013503 1.43721e-11 -2.51495e-11 7.841e-12 2.75237e-06 2.41719e-09 3.37184e-08
3584 2 0.002 0.0277812 -0.11202 -0.000768192 1.26359e-11 -2.17071e-11 -7.25146e-12 3.48646e-06 1.83811e-09 3.20567e-08
3345 2 0.002 0.0173326 -0.122001 -0.0006848 -3.94929e-12 1.77882e-11 -9.99691e-13 1.74295e-06 3.28969e-09 6.71799e-09
3424 2 0.002 0.0208051 -0.123984 -0.00108745 -7.85225e-12 5.45976e-12 -1.57249e-13 2.89154e-06 2.78901e-09 8.41977e-09
3426 2 0.002 0.0208397 -0.116047 -0.000215437 9.7586e-12 -6.18243e-13 9.85388e-12 2.65832e-06 2.21849e-09 2.3592e-08
3503 2 0.002 0.0242849 -0.12197 -0.0013394 -8.9857e-13 -9.57068e-12 -1.79773e-12 3.73663e-06 3.00262e-09 1.41677e-08
3504 2 0.002 0.0242965 -0.11799 -0.00101219 4.19323e-12 -8.98693e-12 -2.53327e-11 2.10937e-06 2.15696e-09 2.23169e-08
3505 2 0.002 0.0243134 -0.114037 -0.000482364 1.13223e-11 -1.21353e-11 -6.90148e-12 3.04012e-06 1.15347e-09 3.0442e-08
3581 2 0.002 0.0277559 -0.123952 -0.0017695 -4.82628e-12 -2.21255e-11 -1.25963e-11 9.29483e-06 3.77204e-09 1.994e-08
3582 2 0.002 0.0277587 -0.119949 -0.00170879 8.32358e-12 -2.44788e-11 1.23487e-11 5.11113e-06 3.77936e-09 2.49985e-08
3425 2 0.002 0.0208182 -0.12 -0.000774134 2.28387e-12 2.81966e-12 5.83129e-12 2.14833e-06 2.5435e-09 1.22981e-08
3346 2 0.002 0.0173547 -0.118044 -0.000116455 3.26991e-12 1.49901e-11 2.04052e-12 2.21762e-06 3.75053e-09 1.14668e-08
3660 2 0.002 0.0312276 -0.121925 -0.00225905 6.55683e-12 -3.10146e-11 1.33139e-11 1.32722e-05 7.10275e-09 3.9425e-08
3661 2 0.002 0.0312266 -0.11792 -0.00218027 1.06929e-11 -3.13899e-11 -9.48906e-12 1.45186e-05 8.98825e-09 4.41246e-08
3662 2 0.002 0.0312384 -0.113951 -0.00167871 1.20091e-11 -2.87865e-11 -1.52718e-11 1.45294e-05 4.91054e-09 5.30409e-08
3663 2 0.002 0.0312465 -0.110005 -0.000910016 1.24932e-11 -2.85928e-11 8.30572e-12 5.88641e-06 2.85306e-09 3.25549e-08
109 1 0.015 0.0403167 -0.117524 -0.00629208 1.03879e-10 1.57314e-10 4.47692e-11 -6.65482e-06 0 2.16223e-06
3818 2 0.002 0.0381572 -0.109938 -0.00162244 4.69182e-12 -1.64518e-11 -1.62272e-11 8.80488e-06 7.46193e-09 8.03508e-08
3894 2 0.002 0.0416524 -0.115814 -0.00357962 1.15382e-11 -1.92069e-11 -7.45605e-12 4.70783e-05 7.64032e-08 1.21766e-06
3895 2 0.002 0.0416237 -0.111878 -0.00232358 6.244e-12 -8.61427e-12 -2.36829e-11 1.14955e-05 3.35276e-08 1.30173e-07
3971 2 0.002 0.0450887 -0.113872 -0.00240449 6.7619e-12 -7.30422e-12 -4.34581e-12 1.08593e-05 2.72338e-08 1.09512e-07
3972 2 0.002 0.0450713 -0.109922 -0.00148835 5.60324e-13 5.48428e-13 -7.86933e-12 7.38594e-06 9.44561e-09 4.89766e-08
3740 2 0.002 0.0347026 -0.111935 -0.00181404 1.24615e-11 -3.11979e-11 3.09565e-12 8.57094e-06 7.64324e-09 6.47801e-08
3737 2 0.002 0.0346944 -0.123919 -0.00254171 5.38055e-12 -3.13273e-11 2.0049e-11 1.54635e-05 8.64083e-09 4.82698e-08
3739 2 0.002 0.0346946 -0.115887 -0.00266629 9.55778e-12 -2.98675e-11 -2.914e-11 2.24534e-05 3.40128e-08 1.10965e-07
3816 2 0.002 0.0381543 -0.117839 -0.00375528 1.27429e-11 -2.99397e-11 -9.51055e-12 4.66195e-05 7.72306e-08 1.18109e-06
3817 2 0.002 0.0381634 -0.113867 -0.0027674 8.85242e-12 -2.05295e-11 -2.88048e-11 2.61425e-05 6.45534e-08 1.27667e-07
3969 2 0.002 0.0450818 -0.121906 -0.00260152 1.07289e-11 -1.58113e-11 1.09417e-12 1.89211e-05 1.49469e-08 7.31653e-08
3738 2 0.002 0.0346921 -0.119888 -0.00290854 8.18371e-12 -3.4395e-11 -1.55628e-11 2.12401e-05 2.82101e-08 9.71295e-08
3815 2 0.002 0.0381616 -0.121893 -0.00312756 9.46877e-12 -3.07789e-11 3.83749e-12 2.32974e-05 5.06119e-08 1.04457e-07
3892 2 0.002 0.0416241 -0.123913 -0.0027502 8.55516e-12 -2.40036e-11 7.92955e-12 1.94936e-05 1.48257e-08 8.8376e-08
3893 2 0.002 0.0416498 -0.119881 -0.00350467 1.20081e-11 -2.39495e-11 -6.04448e-12 3.34859e-05 6.39362e-08 3.34257e-07
3970 2 0.002 0.0450941 -0.117873 -0.0028014 1.38663e-11 -1.26695e-11 -1.72975e-11 2.28475e-05 5.03292e-08 8.79079e-08
4046 2 0.002 0.0485333 -0.115905 -0.00189632 9.04438e-12 -2.30689e-13 -8.84676e-12 1.50913e-05 8.23719e-09 4.53513e-08
4196 2 0.002 0.055413 -0.119958 -0.000756921 9.69154e-12 7.82946e-12 -1.5709e-11 3.98024e-06 1.87023e-09 1.19265e-08
4045 2 0.002 0.0485259 -0.119913 -0.00202089 1.019e-11 -5.23431e-12 -1.91117e-13 1.48341e-05 5.88288e-09 4.22708e-08
4047 2 0.002 0.0485294 -0.111925 -0.00138615 -1.0155e-12 2.05374e-12 1.61007e-11 6.9348e-06 6.14296e-09 5.45164e-08
4044 2 0.002 0.0485163 -0.123932 -0.00181624 9.0196e-12 -7.86682e-12 7.10399e-12 6.50155e-06 3.76586e-09 3.81698e-08
4120 2 0.002 0.0519644 -0.121942 -0.00132913 8.7523e-12 7.34796e-13 3.73749e-12 5.28037e-06 2.43092e-09 2.36065e-08
4121 2 0.002 0.0519705 -0.117934 -0.00130661 6.12203e-12 4.57392e-12 8.28787e-12 1.0822e-05 2.54424e-09 2.22965e-08
4122 2 0.002 0.0519745 -0.11394 -0.00100412 3.1961e-12 9.2295e-12 4.92862e-12 5.44377e-06 2.77674e-09 3.2856e-08
4195 2 0.002 0.0554098 -0.123966 -0.000710835 7.7483e-12 4.23345e-12 8.94064e-13 8.06659e-06 1.29111e-09 1.63034e-08
4197 2 0.002 0.0554164 -0.115957 -0.000574885 5.49181e-12 1.1355e-11 -1.86516e-12 4.02185e-06 1.998e-09 1.48312e-08
4123 2 0.002 0.051975 -0.109971 -0.000450604 3.15849e-12 1.77047e-11 -2.25763e-11 2.605e-06 2.40041e-09 4.30388e-08
4198 2 0.002 0.0554186 -0.111974 -0.000140393 2.29364e-12 1.47392e-11 -3.62827e-13 2.90245e-06 1.72763e-09 2.96709e-08
4270 2 0.002 0.0588631 -0.12198 -0.000263715 5.20381e-12 6.95281e-12 4.16581e-12 6.22924e-06 1.82319e-09 8.15645e-09
4271 2 0.002 0.058866 -0.117974 -0.000198519 3.58036e-12 9.27029e-12 1.2803e-11 2.94711e-06 2.50905e-09 6.00897e-09
4629 2 0.002 0.0762045 -0.115982 -9.09072e-06 7.68931e-12 -1.73284e-11 -2.10643e-12 4.27941e-06 9.46906e-10 3.016e-09
4766 2 0.002 0.0831489 -0.112007 -0.000666072 1.17796e-11 -2.06663e-11 3.40659e-12 2.93352e-06 1.08114e-08 2.53638e-08
4833 2 0.002 0.0866076 -0.110012 -0.000755722 9.43497e-12 -1.81812e-11 9.15075e-12 4.02986e-06 1.34194e-08 1.71189e-08
4832 2 0.002 0.0866426 -0.114051 -0.000988258 8.42289e-12 -1.33539e-11 -1.1869e-11 8.09091e-06 2.48647e-08 4.15527e-07
66 1 0.015 0.088532 -0.116097 -0.00198747 8.38653e-11 3.54604e-11 1.59496e-11 -2.52701e-06 0 4.04184e-07
4699 2 0.002 0.0796742 -0.109984 -0.000280784 1.43196e-11 -2.51302e-11 -1.94233e-12 6.75808e-06 1.10859e-09 1.15742e-08
4963 2 0.002 0.0935247 -0.109995 -0.000226636 4.13588e-12 -5.78896e-12 -6.01482e-12 4.32104e-06 2.65125e-09 3.26919e-09
4897 2 0.002 0.0900873 -0.11602 -0.000498488 1.20776e-11 -9.37972e-12 -5.66657e-11 2.23828e-06 2.2705e-08 2.21261e-08
4765 2 0.002 0.0831456 -0.116003 -0.000551522 9.2861e-12 -1.3083e-11 1.76459e-11 2.87146e-06 1.31597e-08 7.40294e-09
4764 2 0.002 0.0831381 -0.119997 -0.000208335 4.27206e-12 -7.96658e-12 -1.52302e-11 2.75011e-06 2.96217e-09 1.21525e-09
4698 2 0.002 0.0796737 -0.113987 -0.000318579 1.01025e-11 -2.04518e-11 -1.57288e-12 5.49271e-06 3.0718e-09 6.05845e-09
4898 2 0.002 0.090078 -0.112012 -0.000552074 9.99767e-13 -1.10116e-11 3.95212e-11 5.98679e-06 1.86157e-08 6.30694e-09
4831 2 0.002 0.0866109 -0.118014 -0.000406995 6.78082e-12 -7.28902e-13 3.52171e-11 2.63166e-06 1.84769e-08 1.7808e-09
4697 2 0.002 0.0796717 -0.117989 -0.000205738 6.33722e-12 -1.39985e-11 2.3776e-12 3.91185e-06 1.78078e-09 2.73587e-09
4696 2 0.002 0.0796696 -0.121994 -5.72685e-05 2.10417e-12 -6.67015e-12 5.6745e-12 2.76302e-06 5.7308e-10 1.1724e-09
878 2 0.002 -0.096944 -0.0959755 -0.00106193 -7.13103e-12 4.86131e-12 8.13808e-12 1.02324e-05 2.04476e-09 1.93864e-08
754 2 0.002 -0.103886 -0.0959884 -0.000286969 -7.10375e-12 6.7697e-12 8.24469e-12 6.62913e-06 1.30788e-09 8.74431e-09
753 2 0.002 -0.103895 -0.0999955 -0.000223349 -3.58232e-12 3.60806e-12 4.10959e-12 6.35553e-06 2.32854e-09 1.08802e-08
814 2 0.002 -0.100433 -0.10199 -0.000437445 -3.26481e-12 3.8467e-12 -2.8549e-12 4.13367e-06 2.93335e-09 2.13245e-08
816 2 0.002 -0.100408 -0.0939778 -0.000591854 -1.15969e-11 7.56825e-12 -8.32016e-12 4.25988e-06 1.32231e-09 1.32289e-08
876 2 0.002 -0.0969678 -0.103985 -0.000662308 -1.45937e-12 4.3223e-12 -4.88844e-13 4.05423e-06 1.744e-09 1.66574e-08
877 2 0.002 -0.0969561 -0.0999829 -0.00094544 -3.90603e-12 5.15842e-12 3.83275e-12 9.62054e-06 1.92224e-09 2.20648e-08
813 2 0.002 -0.100444 -0.105989 -0.000217448 1.81865e-14 1.85896e-12 1.42581e-12 0.00674015 2.61484e-09 1.064e-08
875 2 0.002 -0.096982 -0.107989 -0.000319861 -1.27046e-13 2.21094e-12 -3.39936e-12 7.05465e-06 3.01238e-09 1.27064e-08
815 2 0.002 -0.100418 -0.0979842 -0.00060818 -7.9368e-12 5.6612e-12 -8.87822e-12 4.01331e-06 1.37789e-09 1.38328e-08
694 2 0.002 -0.107363 -0.098 -7.06026e-05 -3.80133e-12 3.65098e-12 -6.47287e-12 1.84006e-06 1.18365e-09 4.4486e-09
18 1 0.015 -0.0863845 -0.0954461 -0.00482267 7.92417e-11 2.90317e-10 2.01988e-11 -6.01028e-06 0 1.35829e-06
1072 2 0.002 -0.0865383 -0.0939852 -0.00288477 3.91938e-12 -3.21408e-12 6.78543e-12 4.2009e-05 7.34744e-08 1.08166e-06
1206 2 0.002 -0.0796223 -0.0939943 -0.00140841 1.73317e-11 -6.2225e-12 -3.45391e-12 1.81927e-05 1.57491e-08 6.70788e-08
942 2 0.002 -0.0934742 -0.093969 -0.0015593 -7.0641e-12 1.12124e-12 3.03919e-12 1.36356e-05 6.87926e-09 3.24571e-08
1069 2 0.002 -0.0865724 -0.105996 -0.000933755 4.58282e-12 7.66503e-12 -6.60267e-12 9.78325e-06 4.00777e-09 2.28406e-08
1204 2 0.002 -0.0796497 -0.101994 -0.000809495 1.54856e-11 3.04599e-12 1.18109e-12 6.68309e-06 4.0848e-09 3.90945e-08
940 2 0.002 -0.0934933 -0.101986 -0.00119658 -7.6653e-13 5.19956e-12 -2.93696e-13 1.03604e-05 3.0478e-09 2.38403e-08
1004 2 0.002 -0.0900309 -0.103993 -0.00122351 1.47119e-12 4.17058e-12 -1.85351e-11 1.02873e-05 4.2799e-09 2.11001e-08
1136 2 0.002 -0.0831025 -0.104001 -0.001029 1.15649e-11 3.49535e-12 -1.92125e-11 6.09402e-06 5.05614e-09 3.33911e-08
1205 2 0.002 -0.0796295 -0.0979944 -0.00128011 1.75526e-11 -8.08239e-13 4.44058e-12 1.79898e-05 1.02331e-08 7.7844e-08
1137 2 0.002 -0.0830754 -0.100005 -0.00171149 1.22743e-11 3.29189e-12 2.61012e-12 1.81117e-05 2.84495e-08 6.17343e-08
1138 2 0.002 -0.0830529 -0.096001 -0.00233902 1.31108e-11 -2.8001e-12 -3.96914e-12 3.18498e-05 5.04745e-08 4.2263e-07
941 2 0.002 -0.0934827 -0.0979802 -0.00151589 -3.98483e-12 3.59669e-12 -1.12656e-12 1.26653e-05 5.36961e-09 3.13587e-08
1005 2 0.002 -0.0900184 -0.0999957 -0.00180391 8.76582e-13 4.09268e-12 -5.76046e-12 1.46162e-05 1.5912e-08 3.89193e-08
1006 2 0.002 -0.0900146 -0.0959816 -0.00217906 -1.97989e-12 7.11873e-13 -3.51438e-12 1.87404e-05 4.74619e-08 5.88734e-08
1070 2 0.002 -0.0865508 -0.102003 -0.00163256 6.24856e-12 8.10412e-12 1.01034e-11 1.46609e-05 1.14724e-08 4.54873e-08
1071 2 0.002 -0.0865387 -0.0980157 -0.00247095 6.48574e-12 3.57923e-12 6.47993e-12 2.6175e-05 4.93212e-08 2.38593e-07
939 2 0.002 -0.0935077 -0.105987 -0.000759849 6.73987e-13 6.16916e-12 7.36645e-12 2.69191e-06 1.71636e-09 1.57287e-08
1003 2 0.002 -0.0900478 -0.107988 -0.000660426 1.56325e-12 8.68913e-12 1.1981e-11 2.40283e-06 2.60194e-09 1.15603e-08
1135 2 0.002 -0.0831311 -0.108004 -0.00040637 4.31537e-12 8.69096e-12 8.80968e-13 2.28933e-06 2.10189e-09 2.58986e-08
1203 2 0.002 -0.0796764 -0.105997 -0.000282358 8.74866e-12 7.36172e-12 9.13516e-12 5.05843e-06 1.96613e-09 2.33126e-08
1274 2 0.002 -0.0762022 -0.0959914 -0.000537527 1.49245e-11 -1.70956e-12 3.18781e-11 1.36701e-05 3.37009e-09 3.9423e-08
1273 2 0.002 -0.0762175 -0.0999872 -0.000288505 2.0341e-11 4.70201e-13 6.1595e-12 6.558e-06 2.24851e-09 4.34728e-08
3585 2 0.002 0.0277891 -0.108072 -8.98281e-05 7.64075e-12 -1.54508e-11 -2.02702e-11 4.10462e-06 2.413e-09 1.59866e-08
3664 2 0.002 0.0312527 -0.106068 -2.41122e-05 1.99738e-12 -1.38622e-11 -2.34693e-11 3.04895e-06 2.4706e-09 2.2207e-08
3896 2 0.002 0.0416027 -0.107961 -0.00113489 -2.00178e-12 -1.37122e-11 2.22261e-11 1.48853e-05 5.08012e-09 6.64156e-08
3741 2 0.002 0.0347044 -0.108006 -0.000798962 6.14205e-12 -2.52257e-11 1.11606e-11 4.32318e-06 2.29488e-09 4.7429e-08
3819 2 0.002 0.0381478 -0.106023 -0.000460539 -3.50747e-12 -1.11856e-11 -5.59361e-13 3.25262e-06 2.18329e-09 6.33381e-08
3973 2 0.002 0.0450496 -0.105993 -0.000493642 -6.83077e-12 1.12558e-11 -1.93947e-11 5.19345e-06 3.72374e-09 2.60905e-08
4048 2 0.002 0.04852 -0.107972 -0.000630471 -8.13247e-12 5.32597e-12 2.79202e-11 2.6178e-06 3.63195e-09 3.07024e-08
4634 2 0.002 0.0761897 -0.0959506 -0.000185087 1.76778e-11 -1.92534e-11 -1.38665e-11 3.08215e-06 1.07444e-09 2.3098e-08
4702 2 0.002 0.0796514 -0.0979434 -0.000436601 1.42608e-11 -2.13493e-11 -7.27979e-12 7.69177e-06 1.84241e-09 1.16732e-08
4769 2 0.002 0.0831182 -0.099948 -0.000588284 1.08605e-11 -2.13432e-11 3.20586e-12 6.49486e-06 2.34632e-09 7.28713e-09
4836 2 0.002 0.0865866 -0.0979392 -0.000757287 1.18815e-12 -1.51128e-11 9.37067e-12 6.63387e-06 2.14841e-09 7.65006e-09
4902 2 0.002 0.0900572 -0.0959334 -0.000714668 -8.4322e-12 -1.01231e-11 -1.13173e-11 6.90227e-06 1.44596e-09 7.86237e-09
4770 2 0.002 0.0831153 -0.0959304 -0.000842175 5.32459e-12 -1.39199e-11 6.13515e-12 8.18439e-06 3.42794e-09 1.33056e-08
4837 2 0.002 0.0865888 -0.0939217 -0.00102124 -6.34724e-12 -9.01348e-12 -4.9157e-12 8.52802e-06 3.77629e-09 1.20307e-08
4703 2 0.002 0.079647 -0.0939359 -0.000795428 1.13692e-11 -1.0584e-11 1.30742e-11 4.92035e-06 3.0966e-09 2.3781e-08
4768 2 0.002 0.0831236 -0.103968 -0.00050034 1.37974e-11 -2.46678e-11 -7.50523e-13 5.98691e-06 2.05292e-09 6.22488e-09
4701 2 0.002 0.0796579 -0.101957 -0.000246576 1.85221e-11 -2.57032e-11 1.14437e-11 6.6257e-06 1.52055e-09 6.69425e-09