ITEM: TIMESTEP
5000
ITEM: NUMBER OF ATOMS
112
ITEM: BOX BOUNDS ff ff ff
-2.5000000000000000e-01 2.5000000000000000e-01
-2.5000000000000000e-01 2.5000000000000000e-01
-1.0000000000000001e-01 1.0000000000000001e-01
ITEM: ATOMS id type radius x y z fx fy fz v_pressure c_bendingE c_stretchingE
96 1 0.015 -0.0276431 -0.144155 0 1.65121e-06 4.54763e-07 0 -0.000211404 0 0
68 1 0.015 0.0104656 -0.145947 0 -4.38377e-05 -1.29516e-05 0 -0.000322986 0 0
80 1 0.015 0.0378666 -0.14239 0 -3.64051e-05 -6.59462e-06 0 -0.000272911 0 0
63 1 0.015 -0.0547674 -0.135155 0 4.64363e-07 -4.16872e-07 0 -0.000134266 0 0
4 1 0.015 0.0651619 -0.130646 0 2.33804e-05 8.7433e-06 0 -0.000103497 0 0
47 1 0.015 -0.0805007 -0.1234 0 3.93606e-07 -3.3129e-07 0 -0.000276067 0 0
71 1 0.015 -0.033445 -0.116846 0 -1.31979e-06 5.44172e-07 0 -0.000204107 0 0
85 1 0.015 -0.00730564 -0.126113 0 -3.54164e-06 1.03952e-05 0 -0.000300184 0 0
102 1 0.015 0.0147372 -0.109763 0 9.6525e-06 -5.13013e-06 0 -0.000192913 0 0
109 1 0.015 0.0409161 -0.1169 0 1.62695e-05 -1.22876e-05 0 -0.000368418 0 0
66 1 0.015 0.0890971 -0.114623 0 1.66685e-05 1.91215e-05 0 -0.000119786 0 0
35 1 0.015 -0.112361 -0.0947675 0 1.03656e-07 -4.08674e-08 0 -0.000256147 0 0
18 1 0.015 -0.0854859 -0.0969473 0 7.05459e-08 -3.68456e-07 0 -0.00027822 0 0
24 1 0.015 -0.059156 -0.106643 0 -1.42296e-09 -2.50604e-07 0 -0.000208205 0 0
89 1 0.015 -0.0115943 -0.099085 0 2.22569e-06 1.89142e-06 0 -0.000205452 0 0
27 1 0.015 0.0635206 -0.101968 0 3.28809e-06 5.69533e-06 0 -0.000171246 0 0
78 1 0.015 0.110061 -0.0955184 0 8.36325e-06 9.06771e-06 0 -0.000188903 0 0
26 1 0.015 -0.0649328 -0.0788129 0 1.47629e-07 -5.26576e-07 0 -0.00019149 0 0
100 1 0.015 -0.0379741 -0.0892657 0 3.5151e-07 -2.53848e-07 0 -0.00020236 0 0
3 1 0.015 0.0103268 -0.0818378 0 1.84295e-06 -1.87696e-06 0 -0.000187067 0 0
97 1 0.015 0.0365595 -0.0907547 0 1.9102e-06 -1.01676e-05 0 -0.000218238 0 0
72 1 0.015 0.0844747 -0.0845213 0 2.14383e-06 1.08374e-06 0 -0.000195672 0 0
14 1 0.015 -0.126664 -0.0706853 0 8.37775e-08 -8.13819e-08 0 -0.000113587 0 0
67 1 0.015 -0.096986 -0.0716812 0 2.94206e-07 -1.06403e-07 0 -0.000194243 0 0
49 1 0.015 -0.0160131 -0.0719001 0 2.32199e-07 -2.14753e-09 0 -0.000202074 0 0
7 1 0.015 0.0320998 -0.063644 0 6.67981e-08 -3.90586e-06 0 -0.000206617 0 0
111 1 0.015 0.0583661 -0.0739252 0 -1.87811e-06 1.30614e-06 0 -0.000181798 0 0
55 1 0.015 0.103705 -0.0649824 0 4.02555e-07 1.06614e-07 0 -0.000294657 0 0
19 1 0.015 0.128017 -0.0741805 0 2.08733e-06 2.42543e-06 0 -0.000353772 0 0
28 1 0.015 -0.109713 -0.0473607 0 4.9784e-08 -1.15229e-07 0 -0.000163288 0 0
5 1 0.015 -0.0761776 -0.0533496 0 6.7242e-07 -3.95762e-07 0 -0.000265175 0 0
98 1 0.015 -0.0427571 -0.0623509 0 -7.71845e-08 -2.77585e-07 0 -0.000234646 0 0
37 1 0.015 0.00610336 -0.0542749 0 2.08846e-07 -4.59251e-07 0 -0.000206647 0 0
94 1 0.015 0.0787487 -0.055484 0 -1.68633e-07 -3.88657e-08 0 -0.000210868 0 0
84 1 0.015 0.126119 -0.047275 0 -1.8423e-07 4.63644e-09 0 -0.000227859 0 0
38 1 0.015 -0.138277 -0.044959 0 2.8593e-08 -7.43634e-08 0 -0.000124613 0 0
13 1 0.015 -0.0450607 -0.0359483 0 -1.75389e-07 -2.1799e-07 0 -0.000343599 0 0
43 1 0.015 -0.0196923 -0.0448403 0 -1.05925e-07 -1.47822e-07 0 -0.000229892 0 0
77 1 0.015 0.0273803 -0.0360106 0 -6.29857e-08 -7.30421e-07 0 -0.000208768 0 0
110 1 0.015 0.0532572 -0.045713 0 -5.59518e-07 2.04672e-07 0 -0.000202789 0 0
79 1 0.015 0.100212 -0.0371068 0 -1.05691e-07 -1.99987e-07 0 -0.00019491 0 0
99 1 0.015 -0.146879 -0.0181075 0 -9.81369e-09 -4.22252e-08 0 -0.000341815 0 0
50 1 0.015 -0.121022 -0.0215484 0 -5.97273e-08 -4.56023e-08 0 -0.00023397 0 0
44 1 0.015 -0.0949911 -0.0234331 0 -1.19756e-07 -2.9262e-08 0 -0.000298119 0 0
82 1 0.015 -0.0697221 -0.0271838 0 -1.78185e-07 -1.72976e-07 0 -0.000391257 0 0
104 1 0.015 -0.0242151 -0.0171918 0 -1.54231e-07 -1.46769e-07 0 -0.000229104 0 0
40 1 0.015 0.00150119 -0.026518 0 -9.18044e-08 -1.02054e-07 0 -0.000212088 0 0
76 1 0.015 0.0486337 -0.017863 0 -1.06366e-07 3.3079e-08 0 -0.000197945 0 0
9 1 0.015 0.0745566 -0.0273785 0 -7.18721e-08 -6.97373e-08 0 -0.000193132 0 0
70 1 0.015 0.121074 -0.0188008 0 -6.50183e-08 -3.39389e-07 0 -0.000285944 0 0
65 1 0.015 0.145232 -0.0285323 0 -1.03782e-07 -5.20519e-07 0 -0.000368544 0 0
105 1 0.015 -0.0777102 -0.000172134 0 -1.0426e-07 -1.39076e-07 0 -0.000149168 0 0
41 1 0.015 -0.0500886 -0.00896152 0 -1.5479e-07 -1.66207e-07 0 -0.000279926 0 0
32 1 0.015 0.0224691 -0.00833356 0 -7.1371e-08 -9.45067e-08 0 -0.000205434 0 0
103 1 0.015 0.095901 -0.00881922 0 -2.68768e-08 -1.68339e-07 0 -0.000191278 0 0
31 1 0.015 0.145562 -0.000789141 0 -2.98964e-08 -4.99451e-07 0 -0.000195437 0 0
108 1 0.015 -0.132349 0.00445568 0 -9.58451e-08 4.02905e-08 0 -0.00026231 0 0
74 1 0.015 -0.10504 0.00293176 0 -9.01232e-08 -2.06799e-08 0 -0.000166479 0 0
86 1 0.015 -0.0295486 0.0105452 0 -1.326e-07 -1.54404e-07 0 -0.000214309 0 0
17 1 0.015 -0.0036739 0.00141324 0 -1.08099e-07 -8.65921e-08 0 -0.000204689 0 0
81 1 0.015 0.0436457 0.00967174 0 -4.19057e-08 -6.08071e-09 0 -0.000197709 0 0
11 1 0.015 0.0700429 0.000455049 0 -1.46425e-08 -4.03412e-08 0 -0.000189848 0 0
1 1 0.015 0.119043 0.0084178 0 7.45719e-09 -3.2142e-07 0 -0.000203307 0 0
59 1 0.015 -0.144499 0.0280973 0 6.4047e-08 1.67672e-07 0 -0.000315755 0 0
53 1 0.015 -0.116974 0.0286877 0 6.45997e-08 2.29975e-08 0 -0.000184727 0 0
29 1 0.015 -0.0889257 0.0267686 0 6.89681e-08 -9.7299e-08 0 -0.000139566 0 0
93 1 0.015 -0.0558173 0.0164787 0 -1.52604e-07 -1.16342e-07 0 -0.000367406 0 0
73 1 0.015 -0.00979531 0.0297107 0 -6.66257e-08 -1.28821e-07 0 -0.000197392 0 0
36 1 0.015 0.0170052 0.0191831 0 -6.7982e-08 -4.292e-08 0 -0.000203325 0 0
46 1 0.015 0.0651975 0.0276973 0 -2.08841e-08 -1.38892e-08 0 -0.000188127 0 0
88 1 0.015 0.0921011 0.0189007 0 5.9509e-09 -8.49768e-08 0 -0.000140738 0 0
8 1 0.015 0.142633 0.0271895 0 8.02302e-08 -4.41612e-07 0 -0.000140307 0 0
92 1 0.015 -0.0644643 0.0397927 0 3.86652e-08 3.49269e-09 0 -0.000416757 0 0
91 1 0.015 -0.0362442 0.0385812 0 -2.85297e-08 -1.96168e-07 0 -0.000111793 0 0
22 1 0.015 0.01148 0.0462442 0 -1.08937e-07 -2.55395e-08 0 -0.000266043 0 0
33 1 0.015 0.0383055 0.0368348 0 -6.69563e-08 -1.81634e-08 0 -0.000205023 0 0
6 1 0.015 0.115173 0.0349464 0 1.27376e-07 -2.95668e-07 0 -0.000243448 0 0
56 1 0.015 -0.135368 0.0539382 0 1.941e-08 2.00943e-07 0 -0.000230274 0 0
10 1 0.015 -0.10753 0.0546836 0 -5.71725e-08 9.95967e-08 0 -0.000187974 0 0
16 1 0.015 -0.0805078 0.0594787 0 -1.04436e-07 -1.27135e-07 0 -0.000309158 0 0
21 1 0.015 0.0593812 0.0547569 0 -6.82578e-08 3.24602e-09 0 -0.000250208 0 0
69 1 0.015 0.0859636 0.0466238 0 -3.13538e-08 -2.19969e-09 0 -0.000223614 0 0
57 1 0.015 0.108938 0.060664 0 1.67982e-07 -2.75273e-07 0 -0.000372014 0 0
45 1 0.015 0.135695 0.0548708 0 1.53509e-07 -3.81187e-07 0 -0.000173562 0 0
52 1 0.015 -0.0509354 0.0629081 0 2.41577e-07 -9.93522e-08 0 -0.000186058 0 0
62 1 0.015 -0.0221294 0.0641127 0 1.5031e-07 -2.72006e-07 0 -5.66351e-05 0 0
30 1 0.015 0.00514526 0.072455 0 8.08414e-09 2.62052e-08 0 -0.000206491 0 0
61 1 0.015 0.0326549 0.0639473 0 -7.72255e-08 -2.29937e-08 0 -0.00022851 0 0
106 1 0.015 -0.123251 0.0791352 0 1.38278e-07 1.87732e-07 0 -0.000207368 0 0
54 1 0.015 -0.0964177 0.0807477 0 1.59403e-07 5.18044e-08 0 -0.000322484 0 0
15 1 0.015 -0.069049 0.0846458 0 1.86429e-07 -2.0906e-07 0 -0.000220317 0 0
48 1 0.015 -0.040228 0.0876161 0 1.46697e-07 -5.89259e-08 0 -0.000194042 0 0
12 1 0.015 -0.0140136 0.0928889 0 1.11721e-07 6.52375e-08 0 -0.000178982 0 0
107 1 0.015 0.037787 0.0900423 0 1.46739e-07 -9.80568e-08 0 -0.00030682 0 0
20 1 0.015 0.0637455 0.0810704 0 1.98225e-07 -6.00972e-08 0 -0.000341229 0 0
83 1 0.015 0.0905194 0.0802006 0 2.02433e-07 -2.24389e-07 0 -0.000260389 0 0
60 1 0.015 0.119673 0.0848427 0 1.21768e-07 -2.1474e-07 0 -0.000224886 0 0
39 1 0.015 -0.100458 0.106778 0 -2.21468e-08 -1.48969e-08 0 -0.000357651 0 0
51 1 0.015 -0.0574853 0.10871 0 2.49628e-08 -1.02773e-07 0 -0.00034513 0 0
25 1 0.015 0.0124878 0.0988717 0 1.31554e-07 -2.82964e-08 0 -0.000317226 0 0
101 1 0.015 0.0586344 0.107683 0 1.23642e-07 -6.76153e-08 0 -0.000286103 0 0
34 1 0.015 0.101075 0.105504 0 1.30422e-07 -1.64581e-07 0 -0.000270741 0 0
58 1 0.015 -0.0789535 0.123892 0 2.01224e-08 -3.15305e-08 0 -0.000271678 0 0
23 1 0.015 -0.0313406 0.115569 0 3.86763e-08 1.39966e-08 0 -0.00015663 0 0
95 1 0.015 -0.00419177 0.12029 0 8.96587e-08 -1.99101e-08 0 -0.000246434 0 0
87 1 0.015 0.0323554 0.117529 0 1.42461e-07 -6.36361e-08 0 -0.000233045 0 0
42 1 0.015 0.0802628 0.122975 0 1.47211e-07 -1.01933e-07 0 -0.000298748 0 0
75 1 0.015 -0.0528044 0.135973 0 1.57552e-08 -3.82292e-08 0 -0.000139598 0 0
90 1 0.015 0.0548587 0.135353 0 1.33812e-07 -5.47263e-08 0 -0.000167632 0 0
64 1 0.015 -0.025878 0.143217 0 3.81608e-08 8.91582e-09 0 -0.00021459 0 0
112 1 0.015 0.00139336 0.146642 0 7.07878e-08 -1.13327e-08 0 -0.000316836 0 0
2 1 0.015 0.0283152 0.143941 0 9.81535e-08 -4.76842e-08 0 -0.00030858 0 0
