ITEM: TIMESTEP
0
ITEM: NUMBER OF ATOMS
112
ITEM: BOX BOUNDS ff ff ff
-2.5000000000000000e-01 2.5000000000000000e-01
-2.5000000000000000e-01 2.5000000000000000e-01
-1.0000000000000001e-01 1.0000000000000001e-01
ITEM: ATOMS id type radius x y z fx fy fz v_pressure c_bendingE c_stretchingE
47 1 0.015 -0.0698263 -0.110466 0 -0.169279 -0.115558 0 -0.00106251 0 0
18 1 0.015 -0.0544402 -0.0966785 0 -0.773793 0.237393 0 -0.00140158 0 0
63 1 0.015 -0.0508342 -0.0978406 0 0.0487673 -0.141042 0 -0.00129768 0 0
96 1 0.015 -0.0529988 -0.101273 0 -0.328213 -0.796153 0 -0.00141642 0 0
24 1 0.015 -0.0460851 -0.093997 0 0.257685 0.181922 0 -0.00140498 0 0
71 1 0.015 -0.03603 -0.0959858 0 0.38715 -0.0681227 0 -0.00152034 0 0
68 1 0.015 -0.0306386 -0.102541 0 0.312118 -0.364072 0 -0.00111751 0 0
80 1 0.015 -0.00905583 -0.10089 0 0.126466 -0.0956648 0 -0.00116276 0 0
109 1 0.015 0.0287911 -0.0951657 0 -0.0222775 -0.0127725 0 -0.000646217 0 0
4 1 0.015 0.0626953 -0.100766 0 -0.0428359 -0.0191705 0 -0.000979891 0 0
66 1 0.015 0.0815206 -0.108529 0 -0.131988 -0.122916 0 -0.00182375 0 0
78 1 0.015 0.0903726 -0.104303 0 0.206647 0.0942135 0 -0.00118578 0 0
26 1 0.015 -0.0477917 -0.0830785 0 -0.280387 0.316311 0 -0.00156797 0 0
85 1 0.015 -0.0176813 -0.0862427 0 0.178963 0.0865116 0 -0.00104332 0 0
27 1 0.015 0.0506443 -0.0826365 0 0.0261367 0.00704784 0 -0.000855999 0 0
14 1 0.015 -0.10999 -0.0652214 0 -0.16222 -0.00675497 0 -0.0022206 0 0
35 1 0.015 -0.104059 -0.0769249 0 0.0318426 -0.200514 0 -0.00144778 0 0
67 1 0.015 -0.0809971 -0.0763714 0 -0.0324852 -0.0604992 0 -0.00140877 0 0
28 1 0.015 -0.0667791 -0.0649883 0 -0.115735 0.0281555 0 -0.000909807 0 0
49 1 0.015 -0.034035 -0.0744573 0 0.370245 0.136735 0 -0.00109881 0 0
89 1 0.015 -0.0354571 -0.0773361 0 0.0874616 -0.330659 0 -0.00121539 0 0
100 1 0.015 -0.041339 -0.0680685 0 -0.250052 0.192743 0 -0.00114239 0 0
97 1 0.015 0.0366865 -0.0650178 0 -0.134305 -0.242462 0 -0.00104417 0 0
38 1 0.015 -0.104033 -0.0543107 0 0.0825032 0.196794 0 -0.000908853 0 0
5 1 0.015 -0.0534007 -0.0621983 0 -0.148343 0.174904 0 -0.00125124 0 0
98 1 0.015 -0.0339452 -0.0595851 0 -0.15412 0.216415 0 -0.00173305 0 0
3 1 0.015 -0.0211244 -0.0602775 0 0.23742 -0.366415 0 -0.00128145 0 0
40 1 0.015 -0.0166586 -0.0480041 0 0.429539 0.256539 0 -0.00143425 0 0
43 1 0.015 -0.0185603 -0.0495497 0 -0.0451647 -0.160345 0 -0.00107169 0 0
37 1 0.015 0.00389522 -0.0530324 0 -0.0525726 0.0384695 0 -0.00144125 0 0
102 1 0.015 0.00743896 -0.0615716 0 0.00629038 -0.316782 0 -0.000717617 0 0
7 1 0.015 0.0193069 -0.051229 0 0.10249 0.0811723 0 -0.00145634 0 0
111 1 0.015 0.0426184 -0.057223 0 0.138416 -0.0495833 0 -0.001293 0 0
50 1 0.015 -0.0859633 -0.0325801 0 -0.0245209 -0.338385 0 -0.0010415 0 0
44 1 0.015 -0.0680315 -0.0379934 0 -0.104689 -0.0639071 0 -0.0011113 0 0
82 1 0.015 -0.059053 -0.0372509 0 0.241618 0.0417041 0 -0.000626756 0 0
41 1 0.015 -0.026161 -0.0464018 0 -0.473037 0.363876 0 -0.00128649 0 0
104 1 0.015 -0.00886557 -0.0344786 0 -0.0602705 0.297132 0 -0.00145418 0 0
77 1 0.015 0.00158847 -0.0351742 0 0.192658 0.132461 0 -0.00104093 0 0
110 1 0.015 0.0364856 -0.0432166 0 -0.162246 0.12445 0 -0.00151384 0 0
94 1 0.015 0.0528371 -0.04472 0 0.103773 -0.0373305 0 -0.0014325 0 0
55 1 0.015 0.0757216 -0.0335876 0 0.210328 0.144903 0 -0.00118485 0 0
72 1 0.015 0.0743863 -0.0468746 0 0.119846 -0.393557 0 -0.00158686 0 0
79 1 0.015 0.0704024 -0.0373917 0 -0.263904 -0.0328287 0 -0.0016007 0 0
99 1 0.015 -0.10462 -0.0259582 0 -0.252673 -0.16373 0 -0.00118125 0 0
74 1 0.015 -0.0851112 -0.0243037 0 0.158022 -0.0478724 0 -0.00141433 0 0
81 1 0.015 0.0177327 -0.0202385 0 0.0388325 0.0343168 0 -0.000363906 0 0
76 1 0.015 0.0449954 -0.0295427 0 0.00380046 0.218942 0 -0.000936439 0 0
103 1 0.015 0.0785574 -0.0222171 0 0.0666484 0.228537 0 -0.00157039 0 0
19 1 0.015 0.108675 -0.0237289 0 0.0922005 -0.420984 0 -0.00128731 0 0
84 1 0.015 0.0970904 -0.0160041 0 -0.32094 -0.113 0 -0.00140888 0 0
59 1 0.015 -0.0997396 -0.0121784 0 -0.392305 0.114225 0 -0.00157747 0 0
105 1 0.015 -0.0849206 -0.00902967 0 0.341518 0.0665674 0 -0.00156503 0 0
108 1 0.015 -0.0898358 -0.00889712 0 -0.225358 0.188209 0 -0.00163122 0 0
13 1 0.015 -0.0263645 -0.0095161 0 0.00500857 -0.210205 0 -0.0018349 0 0
9 1 0.015 0.0660086 -0.00570015 0 -0.086048 -0.131592 0 -0.000958878 0 0
31 1 0.015 0.109566 -0.00170078 0 0.256852 -0.142458 0 -0.00140469 0 0
65 1 0.015 0.109966 -0.0153069 0 0.250956 -0.0933891 0 -0.00196331 0 0
29 1 0.015 -0.0773229 0.000184759 0 0.254304 0.25494 0 -0.00136235 0 0
86 1 0.015 -0.0253733 0.00648863 0 0.250979 -0.0757088 0 -0.00131826 0 0
93 1 0.015 -0.029316 0.00962508 0 -0.237868 0.220719 0 -0.00109878 0 0
32 1 0.015 0.00796667 0.00645197 0 -0.00578497 -0.0109758 0 -0.000281035 0 0
11 1 0.015 0.0677245 0.00848862 0 -0.192421 -0.00574648 0 -0.00206122 0 0
1 1 0.015 0.0858759 0.0104087 0 0.08869 0.0328913 0 -0.00111874 0 0
70 1 0.015 0.0975429 0.00252816 0 -0.24066 0.145523 0 -0.0014379 0 0
8 1 0.015 0.109443 0.000254967 0 0.218695 0.54412 0 -0.00131886 0 0
91 1 0.015 -0.0355097 0.0311905 0 -0.108389 0.0398306 0 -0.00108141 0 0
88 1 0.015 0.0751294 0.0180364 0 -0.0367557 0.212453 0 -0.00113024 0 0
53 1 0.015 -0.078312 0.0357343 0 -0.338454 -0.16932 0 -0.0013584 0 0
92 1 0.015 -0.072949 0.0354049 0 0.254614 -0.215276 0 -0.00143233 0 0
52 1 0.015 -0.0620301 0.0461075 0 0.246604 0.0269231 0 -0.00115124 0 0
73 1 0.015 -0.0173074 0.0357634 0 0.0902696 0.0253642 0 -0.000907519 0 0
17 1 0.015 0.0147736 0.032046 0 -0.0877844 -0.316847 0 -0.0010335 0 0
36 1 0.015 0.0200892 0.0408735 0 0.153892 -0.148596 0 -0.00145183 0 0
61 1 0.015 0.0395024 0.0462185 0 -0.398118 0.0401212 0 -0.00122525 0 0
33 1 0.015 0.0476755 0.0387697 0 -0.0882693 -0.3221 0 -0.00144915 0 0
46 1 0.015 0.0511003 0.0387099 0 0.576686 -0.233003 0 -0.00142386 0 0
6 1 0.015 0.0794898 0.0403959 0 -0.216885 -0.274902 0 -0.000758154 0 0
69 1 0.015 0.0819168 0.0440744 0 0.0405267 0.139852 0 -0.001146 0 0
10 1 0.015 -0.0815171 0.0502711 0 -0.243301 0.101838 0 -0.0017663 0 0
62 1 0.015 -0.0417097 0.060801 0 0.11485 -0.312213 0 -0.00139038 0 0
22 1 0.015 0.0120388 0.0469656 0 -0.316505 -0.000359522 0 -0.00149668 0 0
21 1 0.015 0.0226187 0.0580608 0 0.265763 -0.0911177 0 -0.00136695 0 0
107 1 0.015 0.0201108 0.0621017 0 0.00979802 0.28429 0 -0.00131537 0 0
20 1 0.015 0.0433395 0.0482139 0 0.1605 0.46285 0 -0.00132733 0 0
57 1 0.015 0.0930453 0.057846 0 -0.0596204 -0.0119047 0 -0.00145282 0 0
45 1 0.015 0.101742 0.0524021 0 0.328232 -0.177853 0 -0.00152883 0 0
16 1 0.015 -0.0715946 0.0640165 0 0.15905 -0.0456526 0 -0.000959997 0 0
54 1 0.015 -0.076706 0.0712917 0 -0.0400171 0.121297 0 -0.00110338 0 0
15 1 0.015 -0.045851 0.0661323 0 -0.21488 0.0896316 0 -0.00130893 0 0
48 1 0.015 -0.0268339 0.0709016 0 0.103988 -0.0601507 0 -0.00115719 0 0
30 1 0.015 -0.00166342 0.0633606 0 -0.166038 -0.0880779 0 -0.00109209 0 0
25 1 0.015 0.014026 0.0724637 0 -0.0229071 0.265084 0 -0.00125687 0 0
83 1 0.015 0.0923293 0.0658663 0 -0.0908397 0.333281 0 -0.0012297 0 0
56 1 0.015 -0.0871395 0.0850851 0 0.0271631 -0.15584 0 -0.00145355 0 0
106 1 0.015 -0.0914552 0.0905303 0 -0.230175 0.197048 0 -0.00118251 0 0
51 1 0.015 -0.0455328 0.0823596 0 -0.116523 0.135484 0 -0.0012511 0 0
12 1 0.015 -0.0052533 0.0839252 0 0.124982 0.0638908 0 -0.00117097 0 0
23 1 0.015 -0.0155129 0.0839619 0 -0.111362 0.076451 0 -0.00150733 0 0
60 1 0.015 0.0988718 0.0870721 0 0.0372632 -0.142762 0 -0.00101048 0 0
58 1 0.015 -0.0712603 0.0970057 0 0.0647577 -0.0242374 0 -0.00108052 0 0
64 1 0.015 -0.0335983 0.0963966 0 0.0119595 0.120778 0 -0.00114293 0 0
95 1 0.015 0.0140708 0.0977271 0 -0.237952 -0.413914 0 -0.000840208 0 0
112 1 0.015 0.0143488 0.098798 0 -0.0739994 0.3139 0 -0.000782591 0 0
87 1 0.015 0.0239451 0.103129 0 0.27911 0.132729 0 -0.00206927 0 0
90 1 0.015 0.0765211 0.106569 0 0.0140806 0.192103 0 -0.0011594 0 0
101 1 0.015 0.0638257 0.103131 0 -0.208719 -0.0372859 0 -0.00140325 0 0
42 1 0.015 0.084082 0.0987316 0 0.0597907 -0.112974 0 -0.0017242 0 0
34 1 0.015 0.10391 0.100855 0 0.132371 0.142227 0 -0.00129541 0 0
39 1 0.015 -0.107513 0.109562 0 0.0542857 -0.0523178 0 -0.000697175 0 0
75 1 0.015 -0.063229 0.111097 0 0.0616627 0.108192 0 -0.0020178 0 0
2 1 0.015 0.0398528 0.112155 0 0.0674468 0.0578819 0 -0.000617877 0 0
