ITEM: TIMESTEP
15000
ITEM: NUMBER OF ATOMS
112
ITEM: BOX BOUNDS ff ff ff
-2.5000000000000000e-01 2.5000000000000000e-01
-2.5000000000000000e-01 2.5000000000000000e-01
-1.0000000000000001e-01 1.0000000000000001e-01
ITEM: ATOMS id type radius x y z fx fy fz v_pressure c_bendingE c_stretchingE
96 1 0.015 -0.0299061 -0.143658 0 -3.46137e-11 -1.23292e-11 0 -0.000206781 0 0
68 1 0.015 0.00950831 -0.145836 0 1.81919e-10 3.02955e-11 0 -0.000306328 0 0
80 1 0.015 0.0369749 -0.14268 0 1.78499e-10 2.93198e-11 0 -0.000277707 0 0
63 1 0.015 -0.0568708 -0.13411 0 -3.51304e-11 4.22377e-12 0 -0.000122727 0 0
85 1 0.015 -0.0088582 -0.12629 0 2.9259e-11 -9.19721e-11 0 -0.00027316 0 0
4 1 0.015 0.0641748 -0.131114 0 1.5258e-10 6.99695e-11 0 -0.000104921 0 0
47 1 0.015 -0.082443 -0.121839 0 -4.49879e-11 3.57314e-11 0 -0.000251411 0 0
71 1 0.015 -0.0349175 -0.116229 0 1.53275e-11 -4.0575e-11 0 -0.000190265 0 0
102 1 0.015 0.0136193 -0.110124 0 6.29246e-11 -8.51592e-11 0 -0.000173684 0 0
109 1 0.015 0.0399027 -0.117214 0 1.06879e-10 1.92759e-11 0 -0.000365098 0 0
66 1 0.015 0.0882405 -0.115283 0 1.35092e-10 1.13026e-10 0 -0.000119736 0 0
18 1 0.015 -0.0864145 -0.0950845 0 -3.66058e-11 5.10111e-11 0 -0.000270969 0 0
24 1 0.015 -0.060469 -0.105432 0 -7.70055e-12 -2.90554e-11 0 -0.000191804 0 0
89 1 0.015 -0.0125603 -0.0990109 0 5.39068e-11 -8.42562e-11 0 -0.000190273 0 0
27 1 0.015 0.0627301 -0.102506 0 8.98813e-11 4.14237e-11 0 -0.000171595 0 0
78 1 0.015 0.109395 -0.096385 0 1.19124e-10 1.3936e-10 0 -0.000193976 0 0
35 1 0.015 -0.113562 -0.0934759 0 -5.35996e-11 9.72018e-11 0 -0.000243142 0 0
100 1 0.015 -0.0387953 -0.0884559 0 4.83733e-11 -7.05042e-11 0 -0.00018747 0 0
3 1 0.015 0.00977957 -0.0820351 0 4.2745e-11 -6.91369e-11 0 -0.000178187 0 0
97 1 0.015 0.0358766 -0.0911038 0 5.38595e-11 -1.13414e-11 0 -0.000214912 0 0
72 1 0.015 0.0839583 -0.0852843 0 7.80071e-11 4.92058e-11 0 -0.000196358 0 0
14 1 0.015 -0.12799 -0.0689329 0 -4.89889e-11 1.08755e-10 0 -0.000101125 0 0
67 1 0.015 -0.0988052 -0.0704502 0 -2.49038e-11 9.66738e-11 0 -0.000236342 0 0
26 1 0.015 -0.0654686 -0.0771607 0 6.61951e-11 -8.2421e-11 0 -0.000169006 0 0
49 1 0.015 -0.0163199 -0.0716224 0 4.01463e-11 -7.61153e-11 0 -0.0001928 0 0
7 1 0.015 0.0320037 -0.0639587 0 2.33979e-11 -2.80929e-11 0 -0.00020672 0 0
111 1 0.015 0.0580305 -0.0744671 0 4.74925e-11 1.13205e-11 0 -0.000182428 0 0
55 1 0.015 0.10347 -0.0658835 0 6.8449e-11 6.67468e-11 0 -0.000298631 0 0
19 1 0.015 0.127538 -0.075225 0 9.9448e-11 1.53994e-10 0 -0.000365404 0 0
5 1 0.015 -0.0784657 -0.0522402 0 1.70198e-10 -8.28299e-11 0 -0.000281075 0 0
98 1 0.015 -0.0427909 -0.0612616 0 4.10786e-11 -7.26268e-11 0 -0.000219904 0 0
37 1 0.015 0.00632082 -0.0543283 0 7.08888e-12 -6.07268e-11 0 -0.00020633 0 0
94 1 0.015 0.0787458 -0.0562134 0 4.24615e-11 2.22712e-11 0 -0.000213174 0 0
84 1 0.015 0.12627 -0.0482978 0 4.93093e-11 1.35759e-10 0 -0.000222482 0 0
38 1 0.015 -0.139131 -0.0425195 0 -4.02891e-11 1.32365e-10 0 -0.000107461 0 0
28 1 0.015 -0.110921 -0.0460061 0 -4.56568e-11 9.85969e-11 0 -0.000191024 0 0
13 1 0.015 -0.0438115 -0.0346524 0 -5.43329e-11 -7.10657e-11 0 -0.000369099 0 0
43 1 0.015 -0.0190522 -0.0444119 0 -1.52099e-11 -6.75992e-11 0 -0.000234829 0 0
77 1 0.015 0.0279282 -0.0361957 0 -1.25095e-12 -4.32551e-11 0 -0.000209786 0 0
110 1 0.015 0.0534869 -0.0462055 0 1.84882e-11 -1.20934e-11 0 -0.00020582 0 0
79 1 0.015 0.100619 -0.0379802 0 2.10402e-11 5.47821e-11 0 -0.000194871 0 0
50 1 0.015 -0.12087 -0.0197591 0 -2.42815e-11 1.18535e-10 0 -0.000212485 0 0
44 1 0.015 -0.0944037 -0.0236391 0 -3.75794e-11 8.83465e-11 0 -0.000262317 0 0
82 1 0.015 -0.0685384 -0.0273259 0 -5.48652e-11 8.67806e-12 0 -0.000384834 0 0
104 1 0.015 -0.0231333 -0.0165008 0 -2.75314e-11 -7.90099e-11 0 -0.000232632 0 0
40 1 0.015 0.0023918 -0.0263753 0 -1.56982e-11 -6.69543e-11 0 -0.000212484 0 0
76 1 0.015 0.0495383 -0.0182415 0 -1.01165e-11 -2.74683e-11 0 -0.000202012 0 0
9 1 0.015 0.0751318 -0.0281103 0 5.24676e-12 8.67747e-12 0 -0.000198383 0 0
70 1 0.015 0.121519 -0.0193708 0 -2.17886e-12 9.12089e-11 0 -0.00028494 0 0
65 1 0.015 0.145226 -0.0294818 0 3.10373e-11 1.68981e-10 0 -0.000384718 0 0
99 1 0.015 -0.14688 -0.0151397 0 -1.46059e-11 1.53606e-10 0 -0.000299251 0 0
105 1 0.015 -0.0764822 -0.00109571 0 1.009e-11 3.68277e-11 0 -0.000203577 0 0
41 1 0.015 -0.0493124 -0.00751008 0 -1.24214e-11 -4.54832e-11 0 -0.000242118 0 0
32 1 0.015 0.0238252 -0.00834206 0 -2.14365e-11 -5.46722e-11 0 -0.000204139 0 0
11 1 0.015 0.0712221 -0.000154949 0 -2.24053e-11 -7.27437e-12 0 -0.000204174 0 0
103 1 0.015 0.0966743 -0.00973508 0 -1.09394e-11 3.97552e-11 0 -0.000209823 0 0
31 1 0.015 0.14576 -0.00168901 0 1.05168e-11 1.682e-10 0 -0.000197979 0 0
108 1 0.015 -0.131222 0.00695331 0 1.95266e-11 1.37094e-10 0 -0.000226718 0 0
74 1 0.015 -0.103795 0.00322243 0 1.57944e-11 9.9894e-11 0 -0.000163579 0 0
86 1 0.015 -0.0285072 0.0107992 0 1.10705e-13 -6.71914e-11 0 -0.00019147 0 0
17 1 0.015 -0.00202945 0.00150822 0 -2.24974e-11 -7.13038e-11 0 -0.000202106 0 0
81 1 0.015 0.0455343 0.00956996 0 -3.5497e-11 -4.03297e-11 0 -0.000204146 0 0
1 1 0.015 0.119822 0.00820231 0 -1.2013e-11 8.38944e-11 0 -0.000167837 0 0
53 1 0.015 -0.113918 0.0297048 0 6.04568e-11 1.11084e-10 0 -0.000128052 0 0
29 1 0.015 -0.0852037 0.0250088 0 6.95341e-11 5.69871e-11 0 -0.000155406 0 0
93 1 0.015 -0.0563341 0.0188844 0 5.38543e-11 -1.01338e-11 0 -0.000183947 0 0
73 1 0.015 -0.00624392 0.0289496 0 -3.81912e-11 -6.00026e-11 0 -0.00019968 0 0
36 1 0.015 0.019739 0.0193639 0 -4.02223e-11 -5.76482e-11 0 -0.000202941 0 0
46 1 0.015 0.0674552 0.0274748 0 -4.77354e-11 -2.86022e-11 0 -0.000198228 0 0
88 1 0.015 0.0935 0.0178122 0 -2.74351e-11 2.23961e-11 0 -0.000184708 0 0
8 1 0.015 0.142847 0.0265085 0 -3.09596e-11 1.58966e-10 0 -0.000100381 0 0
59 1 0.015 -0.142744 0.0313837 0 4.42513e-11 1.5015e-10 0 -0.000228468 0 0
92 1 0.015 -0.0577778 0.0455646 0 -3.93601e-11 -7.34927e-12 0 -0.000327118 0 0
91 1 0.015 -0.0321521 0.03756 0 -4.85911e-11 -5.80158e-11 0 -0.000273563 0 0
22 1 0.015 0.015428 0.0469192 0 -4.31396e-11 -5.71333e-11 0 -0.000192212 0 0
33 1 0.015 0.0416129 0.0372427 0 -5.18316e-11 -4.84857e-11 0 -0.000194789 0 0
69 1 0.015 0.0890824 0.045462 0 -7.13516e-11 -7.49127e-12 0 -0.000234256 0 0
6 1 0.015 0.115655 0.0353514 0 -4.1344e-11 7.06391e-11 0 -0.000183695 0 0
56 1 0.015 -0.135182 0.057842 0 4.24902e-11 1.46728e-10 0 -0.000274156 0 0
10 1 0.015 -0.109037 0.0569923 0 1.76805e-11 1.16407e-10 0 -0.000316538 0 0
16 1 0.015 -0.0834741 0.0520903 0 -1.21643e-11 6.14403e-11 0 -0.000330408 0 0
62 1 0.015 -0.0108357 0.0567501 0 -3.1662e-11 -6.01656e-11 0 -0.000175389 0 0
21 1 0.015 0.0637652 0.0552968 0 -6.80415e-11 -4.34002e-11 0 -0.000225324 0 0
57 1 0.015 0.109927 0.0625261 0 -1.25243e-10 3.01269e-11 0 -0.000288953 0 0
45 1 0.015 0.136143 0.0543851 0 -8.07406e-11 1.54045e-10 0 -0.000192074 0 0
15 1 0.015 -0.0643013 0.0720307 0 2.15033e-11 2.4261e-11 0 -0.000236439 0 0
52 1 0.015 -0.0369797 0.0646534 0 -1.36587e-11 -3.20717e-11 0 -0.00021623 0 0
30 1 0.015 0.010712 0.0742785 0 -2.33294e-11 -5.23418e-11 0 -0.00018135 0 0
61 1 0.015 0.0375006 0.0645911 0 -5.07717e-11 -4.64596e-11 0 -0.000187964 0 0
106 1 0.015 -0.120259 0.0825901 0 7.54242e-11 1.33764e-10 0 -0.000127774 0 0
54 1 0.015 -0.0915527 0.0790768 0 4.86344e-11 8.06083e-11 0 -0.000161789 0 0
48 1 0.015 -0.0437872 0.0905198 0 3.82242e-11 3.60724e-12 0 -0.000303509 0 0
12 1 0.015 -0.0161845 0.0852181 0 8.03242e-12 -5.2508e-11 0 -0.000105805 0 0
107 1 0.015 0.0332704 0.0914047 0 -1.13233e-11 -3.53848e-11 0 -0.000204772 0 0
20 1 0.015 0.0604073 0.0823793 0 -4.58337e-11 -5.28999e-11 0 -0.000198225 0 0
83 1 0.015 0.088352 0.0804328 0 -5.1319e-11 7.90974e-11 0 -0.000125675 0 0
60 1 0.015 0.117018 0.0881412 0 2.204e-11 -2.37925e-11 0 -0.000226268 0 0
39 1 0.015 -0.10217 0.104369 0 1.11352e-10 1.0722e-10 0 -0.00022499 0 0
51 1 0.015 -0.0704863 0.0985587 0 5.88043e-11 4.64715e-11 0 -0.000266456 0 0
25 1 0.015 0.00697567 0.101339 0 6.19851e-12 -4.93033e-11 0 -0.000255143 0 0
101 1 0.015 0.0548623 0.108957 0 1.58575e-11 -3.90374e-11 0 -0.000249273 0 0
34 1 0.015 0.097483 0.107571 0 5.01211e-11 1.99648e-12 0 -0.000221577 0 0
58 1 0.015 -0.0813871 0.12254 0 1.28643e-10 8.25506e-11 0 -0.000338476 0 0
23 1 0.015 -0.0384159 0.11599 0 1.05139e-10 5.26768e-12 0 -0.000352068 0 0
95 1 0.015 -0.0117136 0.120469 0 1.02854e-10 2.88753e-11 0 -0.000270458 0 0
87 1 0.015 0.0284411 0.118579 0 1.28968e-11 -2.83514e-11 0 -0.000235784 0 0
42 1 0.015 0.0764926 0.125007 0 3.33153e-11 -3.41677e-11 0 -0.000271778 0 0
75 1 0.015 -0.0572536 0.134975 0 1.33642e-10 5.01799e-11 0 -0.000293578 0 0
90 1 0.015 0.0508596 0.136742 0 5.59044e-11 -3.36571e-11 0 -0.00016138 0 0
64 1 0.015 -0.0302632 0.142757 0 1.16764e-10 2.10539e-11 0 -0.000171663 0 0
112 1 0.015 -0.00281766 0.14625 0 1.07019e-10 1.40513e-11 0 -0.000291633 0 0
2 1 0.015 0.0241794 0.144832 0 9.08259e-11 -1.27674e-11 0 -0.000317295 0 0
