ITEM: TIMESTEP
10000
ITEM: NUMBER OF ATOMS
112
ITEM: BOX BOUNDS ff ff ff
-2.5000000000000000e-01 2.5000000000000000e-01
-2.5000000000000000e-01 2.5000000000000000e-01
-1.0000000000000001e-01 1.0000000000000001e-01
ITEM: ATOMS id type radius x y z fx fy fz v_pressure c_bendingE c_stretchingE
96 1 0.015 -0.0299052 -0.14366 0 2.13162e-08 -8.93885e-09 0 -0.000206994 0 0
68 1 0.015 0.00953627 -0.145831 0 5.53229e-08 6.5618e-09 0 -0.000306216 0 0
80 1 0.015 0.0370022 -0.142676 0 5.34834e-08 9.38029e-09 0 -0.000277923 0 0
63 1 0.015 -0.0568705 -0.134112 0 1.84424e-08 -1.24175e-08 0 -0.000122703 0 0
85 1 0.015 -0.00885028 -0.126302 0 2.62037e-08 -1.77709e-08 0 -0.000272882 0 0
4 1 0.015 0.0641978 -0.131103 0 4.37337e-08 2.00649e-08 0 -0.000104955 0 0
47 1 0.015 -0.0824446 -0.121838 0 1.28403e-08 -1.03288e-08 0 -0.000251276 0 0
71 1 0.015 -0.0349118 -0.116236 0 2.12009e-08 -1.58799e-08 0 -0.000190275 0 0
102 1 0.015 0.0136302 -0.110134 0 2.53366e-08 -1.17394e-08 0 -0.000173368 0 0
109 1 0.015 0.0399192 -0.117211 0 3.20459e-08 7.15082e-09 0 -0.000365188 0 0
66 1 0.015 0.0882606 -0.115266 0 3.70539e-08 3.07784e-08 0 -0.000119625 0 0
18 1 0.015 -0.0864185 -0.0950814 0 -4.60224e-09 -8.72591e-09 0 -0.000270423 0 0
24 1 0.015 -0.0604672 -0.105439 0 1.23512e-08 -2.23021e-08 0 -0.000191792 0 0
89 1 0.015 -0.0125509 -0.0990222 0 2.20358e-08 -1.76801e-08 0 -0.000190185 0 0
27 1 0.015 0.0627437 -0.1025 0 2.54124e-08 1.27688e-08 0 -0.000171721 0 0
78 1 0.015 0.109413 -0.0963644 0 3.13315e-08 3.67067e-08 0 -0.000193962 0 0
35 1 0.015 -0.113568 -0.0934633 0 -7.07434e-09 2.10072e-08 0 -0.000242847 0 0
100 1 0.015 -0.0387869 -0.0884669 0 1.97855e-08 -2.33274e-08 0 -0.000187583 0 0
3 1 0.015 0.00978624 -0.0820436 0 1.3381e-08 -1.05915e-08 0 -0.000178115 0 0
97 1 0.015 0.0358851 -0.0911046 0 1.70087e-08 1.05601e-09 0 -0.000214944 0 0
72 1 0.015 0.0839697 -0.0852769 0 2.04897e-08 1.33494e-08 0 -0.000196355 0 0
14 1 0.015 -0.127995 -0.0689195 0 -3.27271e-09 1.97216e-08 0 -0.000100953 0 0
67 1 0.015 -0.098805 -0.070438 0 1.32924e-08 1.83133e-08 0 -0.000235751 0 0
26 1 0.015 -0.065458 -0.0771768 0 2.26086e-08 -4.47376e-08 0 -0.000169642 0 0
49 1 0.015 -0.0163142 -0.0716327 0 9.58095e-09 -1.65842e-08 0 -0.000192794 0 0
7 1 0.015 0.032007 -0.0639619 0 5.42107e-09 -3.28014e-09 0 -0.000206718 0 0
111 1 0.015 0.0580375 -0.0744649 0 1.27454e-08 5.34553e-09 0 -0.00018245 0 0
55 1 0.015 0.10348 -0.0658739 0 1.69935e-08 1.57532e-08 0 -0.000298535 0 0
19 1 0.015 0.127552 -0.0752026 0 2.57291e-08 3.88989e-08 0 -0.000365579 0 0
5 1 0.015 -0.078435 -0.0522549 0 7.97765e-08 -3.65426e-08 0 -0.000281166 0 0
98 1 0.015 -0.042786 -0.0612727 0 4.9748e-09 -2.26758e-08 0 -0.000220001 0 0
37 1 0.015 0.00632125 -0.054336 0 -1.2065e-09 -1.09436e-08 0 -0.000206254 0 0
94 1 0.015 0.0787519 -0.05621 0 1.03554e-08 6.13193e-09 0 -0.000213154 0 0
84 1 0.015 0.126276 -0.0482783 0 9.68422e-09 3.23226e-08 0 -0.000222562 0 0
38 1 0.015 -0.139136 -0.0425033 0 -5.63413e-09 2.3102e-08 0 -0.000107323 0 0
28 1 0.015 -0.110927 -0.0459938 0 -4.30361e-09 1.79163e-08 0 -0.000190914 0 0
13 1 0.015 -0.0438208 -0.0346627 0 -2.21675e-08 -1.94778e-08 0 -0.00036861 0 0
43 1 0.015 -0.0190555 -0.0444212 0 -1.01627e-08 -1.56855e-08 0 -0.000234683 0 0
77 1 0.015 0.0279273 -0.0362013 0 -3.21241e-09 -8.53357e-09 0 -0.000209781 0 0
110 1 0.015 0.0534892 -0.0462068 0 3.43453e-09 -1.44634e-09 0 -0.000205821 0 0
79 1 0.015 0.100621 -0.0379724 0 3.81785e-09 1.24364e-08 0 -0.00019493 0 0
50 1 0.015 -0.120874 -0.0197438 0 -8.45925e-09 2.45528e-08 0 -0.000212463 0 0
44 1 0.015 -0.0944101 -0.0236265 0 -1.47651e-08 2.55344e-08 0 -0.000262502 0 0
82 1 0.015 -0.0685477 -0.0273243 0 -2.20663e-08 5.90367e-09 0 -0.000384748 0 0
104 1 0.015 -0.0231388 -0.0165115 0 -1.39782e-08 -1.89713e-08 0 -0.000232514 0 0
40 1 0.015 0.00238835 -0.0263843 0 -9.20114e-09 -1.48353e-08 0 -0.000212438 0 0
76 1 0.015 0.0495363 -0.0182453 0 -4.49025e-09 -6.72192e-09 0 -0.000202054 0 0
9 1 0.015 0.0751321 -0.028109 0 -1.36205e-11 1.67681e-09 0 -0.000198429 0 0
70 1 0.015 0.121518 -0.0193582 0 -1.42854e-10 1.90585e-08 0 -0.000285095 0 0
65 1 0.015 0.14523 -0.0294583 0 7.22869e-09 3.5776e-08 0 -0.000384664 0 0
99 1 0.015 -0.146882 -0.0151206 0 -3.86209e-09 2.82268e-08 0 -0.000299171 0 0
105 1 0.015 -0.0764824 -0.0010901 0 -4.77995e-09 1.36386e-08 0 -0.000203575 0 0
41 1 0.015 -0.0493156 -0.00751615 0 -9.63724e-09 -9.70815e-09 0 -0.000242038 0 0
32 1 0.015 0.0238212 -0.00834963 0 -8.53072e-09 -1.3175e-08 0 -0.00020417 0 0
11 1 0.015 0.0712185 -0.000156402 0 -5.65421e-09 -3.94673e-09 0 -0.000204249 0 0
103 1 0.015 0.0966726 -0.00972983 0 -2.59895e-09 6.97488e-09 0 -0.000209901 0 0
31 1 0.015 0.145762 -0.00166576 0 2.61068e-09 3.42536e-08 0 -0.000198097 0 0
108 1 0.015 -0.131221 0.00697185 0 -3.93922e-09 3.15425e-08 0 -0.00022659 0 0
74 1 0.015 -0.103795 0.0032363 0 -4.39191e-09 2.6766e-08 0 -0.000163557 0 0
86 1 0.015 -0.0285087 0.0107905 0 -5.08517e-09 -1.44992e-08 0 -0.000191577 0 0
17 1 0.015 -0.00203397 0.00149851 0 -1.00881e-08 -1.72076e-08 0 -0.000202116 0 0
81 1 0.015 0.0455287 0.0095639 0 -9.11265e-09 -1.15716e-08 0 -0.000204218 0 0
1 1 0.015 0.11982 0.00821349 0 -2.04118e-09 1.54759e-08 0 -0.000167843 0 0
53 1 0.015 -0.113911 0.0297203 0 7.74196e-09 2.95894e-08 0 -0.000127975 0 0
29 1 0.015 -0.0851959 0.0250171 0 8.25002e-09 1.86114e-08 0 -0.000155359 0 0
93 1 0.015 -0.0563285 0.0188835 0 5.98535e-09 2.53316e-10 0 -0.000183931 0 0
73 1 0.015 -0.00624966 0.0289415 0 -7.64212e-09 -1.46788e-08 0 -0.000199681 0 0
36 1 0.015 0.0197327 0.0193556 0 -1.00378e-08 -1.52785e-08 0 -0.000202982 0 0
46 1 0.015 0.0674482 0.0274699 0 -9.9772e-09 -1.04425e-08 0 -0.00019837 0 0
88 1 0.015 0.093496 0.0178147 0 -5.46011e-09 1.50234e-09 0 -0.000184763 0 0
8 1 0.015 0.142843 0.0265303 0 -5.512e-09 3.10896e-08 0 -0.000100368 0 0
59 1 0.015 -0.142738 0.0314056 0 9.62849e-09 3.99482e-08 0 -0.000228392 0 0
92 1 0.015 -0.0577824 0.0455645 0 -2.05583e-09 2.54646e-09 0 -0.000327025 0 0
91 1 0.015 -0.0321584 0.0375531 0 -6.22239e-09 -1.07682e-08 0 -0.000273327 0 0
22 1 0.015 0.0154219 0.0469111 0 -6.45902e-09 -1.46709e-08 0 -0.000192286 0 0
33 1 0.015 0.0416053 0.0372353 0 -1.03782e-08 -1.44467e-08 0 -0.000194898 0 0
69 1 0.015 0.0890722 0.0454599 0 -1.42183e-08 -6.50842e-09 0 -0.000234532 0 0
6 1 0.015 0.11565 0.0353603 0 -7.41212e-09 1.08006e-08 0 -0.000183717 0 0
56 1 0.015 -0.135175 0.0578636 0 1.41163e-08 3.91442e-08 0 -0.000274306 0 0
10 1 0.015 -0.109034 0.0570086 0 1.05107e-08 3.09141e-08 0 -0.000316771 0 0
16 1 0.015 -0.083475 0.0520992 0 4.90542e-09 1.99084e-08 0 -0.000330539 0 0
62 1 0.015 -0.0108398 0.0567427 0 -7.44563e-10 -1.30723e-08 0 -0.000175388 0 0
21 1 0.015 0.0637556 0.0552894 0 -1.2596e-08 -1.50923e-08 0 -0.000225632 0 0
57 1 0.015 0.109909 0.0625286 0 -2.56584e-08 -3.58817e-10 0 -0.00028931 0 0
45 1 0.015 0.136132 0.054406 0 -1.57365e-08 2.93586e-08 0 -0.00019181 0 0
15 1 0.015 -0.0642979 0.0720349 0 1.35634e-08 1.07564e-08 0 -0.000236445 0 0
52 1 0.015 -0.0369811 0.0646506 0 4.9141e-09 -4.57627e-09 0 -0.000216147 0 0
30 1 0.015 0.0107095 0.0742713 0 2.27117e-09 -1.19851e-08 0 -0.0001814 0 0
61 1 0.015 0.0374939 0.0645838 0 -6.64231e-09 -1.36821e-08 0 -0.000188089 0 0
106 1 0.015 -0.120247 0.08261 0 2.28992e-08 3.56686e-08 0 -0.000127799 0 0
54 1 0.015 -0.0915457 0.0790881 0 1.91739e-08 2.47465e-08 0 -0.000161957 0 0
48 1 0.015 -0.0437822 0.090522 0 2.03759e-08 3.61899e-09 0 -0.000303397 0 0
12 1 0.015 -0.0161828 0.0852123 0 1.22328e-08 -1.05643e-08 0 -0.000105896 0 0
107 1 0.015 0.0332706 0.0913991 0 6.55826e-09 -1.04798e-08 0 -0.000204774 0 0
20 1 0.015 0.060402 0.0823703 0 -3.35999e-09 -1.77095e-08 0 -0.000198449 0 0
83 1 0.015 0.0883459 0.0804429 0 -5.54749e-09 1.22948e-08 0 -0.000125969 0 0
60 1 0.015 0.117024 0.0881351 0 1.37092e-08 -1.565e-08 0 -0.000226267 0 0
39 1 0.015 -0.102152 0.104386 0 3.0711e-08 2.97769e-08 0 -0.000224884 0 0
51 1 0.015 -0.070479 0.0985655 0 2.58249e-08 1.65094e-08 0 -0.000266482 0 0
25 1 0.015 0.00697877 0.101332 0 1.19418e-08 -9.76715e-09 0 -0.000255217 0 0
101 1 0.015 0.0548673 0.10895 0 1.53262e-08 -1.40592e-08 0 -0.000249095 0 0
34 1 0.015 0.0974932 0.107569 0 2.22452e-08 -8.14529e-09 0 -0.000221924 0 0
58 1 0.015 -0.081366 0.122553 0 3.60823e-08 2.2719e-08 0 -0.000338488 0 0
23 1 0.015 -0.038397 0.115991 0 2.99397e-08 4.8185e-09 0 -0.000351793 0 0
95 1 0.015 -0.0116953 0.120474 0 3.05254e-08 5.72333e-09 0 -0.000270683 0 0
87 1 0.015 0.0284459 0.118574 0 1.60734e-08 -8.62999e-09 0 -0.000235565 0 0
42 1 0.015 0.0765007 0.125 0 2.00165e-08 -1.489e-08 0 -0.000271859 0 0
75 1 0.015 -0.057231 0.134983 0 3.82616e-08 1.54622e-08 0 -0.000293667 0 0
90 1 0.015 0.0508713 0.136736 0 2.59786e-08 -1.22075e-08 0 -0.000161504 0 0
64 1 0.015 -0.0302427 0.14276 0 3.67155e-08 6.84318e-09 0 -0.000171787 0 0
112 1 0.015 -0.00279829 0.146252 0 3.59252e-08 2.16491e-09 0 -0.000291918 0 0
2 1 0.015 0.0241964 0.144829 0 3.32276e-08 -5.21505e-09 0 -0.000317576 0 0
