ITEM: TIMESTEP
35000
ITEM: NUMBER OF ATOMS
112
ITEM: BOX BOUNDS ff ff ff
-2.5000000000000000e-01 2.5000000000000000e-01
-2.5000000000000000e-01 2.5000000000000000e-01
-1.0000000000000001e-01 1.0000000000000001e-01
ITEM: ATOMS id type radius x y z fx fy fz v_pressure c_bendingE c_stretchingE
98 1 0.015 -0.0129115 -0.146978 0 1.34392e-14 -8.56025e-16 0 -0.000318202 0 0
51 1 0.015 0.0142445 -0.143775 0 1.44682e-14 -4.3618e-15 0 -0.00020084 0 0
93 1 0.015 0.0417054 -0.141616 0 1.57381e-14 8.02368e-15 0 -0.000387403 0 0
56 1 0.015 -0.067259 -0.128952 0 9.9409e-15 -6.66514e-15 0 -9.65355e-05 0 0
61 1 0.015 -0.040763 -0.14011 0 1.1014e-14 -3.16102e-15 0 -0.000121425 0 0
76 1 0.015 0.0660273 -0.130255 0 1.52137e-14 9.45732e-15 0 -0.000319692 0 0
9 1 0.015 -0.0920058 -0.114438 0 9.14688e-15 -1.10269e-14 0 -0.000212452 0 0
24 1 0.015 -0.0439874 -0.112165 0 3.68967e-15 -3.36241e-15 0 -0.000186646 0 0
103 1 0.015 -0.0185968 -0.121937 0 4.56473e-15 -1.29501e-16 0 -0.000331178 0 0
20 1 0.015 0.029432 -0.118909 0 -3.82293e-15 1.41641e-15 0 -0.000283166 0 0
43 1 0.015 0.0886111 -0.115673 0 1.34731e-14 1.05387e-14 0 -0.000281534 0 0
88 1 0.015 -0.0684711 -0.10006 0 1.48873e-15 -6.18331e-15 0 -0.00019312 0 0
92 1 0.015 -0.0202776 -0.0951996 0 -2.0169e-15 1.74308e-15 0 -0.00022332 0 0
47 1 0.015 0.00484428 -0.108043 0 -8.09738e-16 6.36725e-15 0 -0.000221593 0 0
31 1 0.015 0.0544122 -0.10509 0 -5.87808e-15 2.18533e-15 0 -0.000143567 0 0
68 1 0.015 0.108332 -0.0970295 0 1.26619e-14 9.31389e-15 0 -0.000240632 0 0
37 1 0.015 -0.119702 -0.0837914 0 -3.84613e-15 8.29531e-15 0 -0.00031805 0 0
90 1 0.015 -0.0931236 -0.0870623 0 -5.36065e-15 -1.38673e-14 0 -0.000262467 0 0
33 1 0.015 -0.0452789 -0.0841267 0 -3.68052e-15 -3.25549e-15 0 -0.000202733 0 0
46 1 0.015 0.00329057 -0.0800164 0 -5.35317e-15 5.93591e-15 0 -0.000191209 0 0
45 1 0.015 0.0286338 -0.0919035 0 -4.67255e-15 4.40971e-15 0 -0.000194602 0 0
53 1 0.015 0.0784112 -0.0893742 0 -7.89894e-15 3.22777e-15 0 -0.00011315 0 0
96 1 0.015 -0.0701122 -0.0717767 0 -9.00514e-15 -8.56979e-15 0 -0.000197448 0 0
29 1 0.015 -0.0216984 -0.0677722 0 -6.3314e-15 2.32613e-15 0 -0.00021258 0 0
22 1 0.015 0.0262384 -0.0642608 0 -8.81391e-15 6.28064e-15 0 -0.000194585 0 0
52 1 0.015 0.0520728 -0.0771165 0 -6.84645e-15 4.93784e-15 0 -0.000162304 0 0
112 1 0.015 0.0993925 -0.0701642 0 -4.38092e-15 -4.84434e-17 0 -0.000240359 0 0
91 1 0.015 0.12573 -0.0756173 0 3.86466e-15 1.46949e-14 0 -0.000324473 0 0
99 1 0.015 -0.134546 -0.0606014 0 -5.17314e-15 6.52039e-15 0 -0.000295586 0 0
28 1 0.015 -0.0953486 -0.0591946 0 -1.41988e-14 -1.23041e-14 0 -0.000162256 0 0
109 1 0.015 -0.0465217 -0.0564653 0 -9.66032e-15 -6.80383e-15 0 -0.000224357 0 0
27 1 0.015 0.00123641 -0.0517683 0 -8.99501e-15 7.39096e-15 0 -0.000197891 0 0
30 1 0.015 0.0486113 -0.0489347 0 -1.10152e-14 4.98355e-15 0 -0.000199512 0 0
25 1 0.015 0.0742826 -0.0609112 0 -6.09027e-15 3.63425e-15 0 -0.000242038 0 0
10 1 0.015 0.136103 -0.0508449 0 7.22675e-15 1.28598e-14 0 -0.000288518 0 0
78 1 0.015 -0.142575 -0.0321492 0 -3.54676e-15 7.77272e-15 0 -0.000115498 0 0
41 1 0.015 -0.116713 -0.0424884 0 -5.24201e-15 2.57272e-15 0 -0.00039104 0 0
16 1 0.015 -0.0711711 -0.0439776 0 -1.41756e-14 -1.04482e-14 0 -0.000200335 0 0
63 1 0.015 -0.0232257 -0.0397872 0 -9.67108e-15 2.76863e-15 0 -0.000270274 0 0
8 1 0.015 0.0232847 -0.0358101 0 -1.23589e-14 9.95114e-15 0 -0.000180882 0 0
107 1 0.015 0.0714566 -0.033917 0 -1.39373e-14 2.37663e-15 0 -0.000269574 0 0
106 1 0.015 0.108532 -0.0435926 0 4.42491e-15 -3.93736e-15 0 -0.000134759 0 0
44 1 0.015 -0.0940489 -0.0293885 0 -7.43524e-15 -2.40603e-15 0 -0.000234689 0 0
84 1 0.015 -0.0472703 -0.0290841 0 -1.53006e-14 -1.23489e-14 0 -0.000328083 0 0
110 1 0.015 -0.00210812 -0.0225028 0 -1.4527e-14 1.34706e-14 0 -0.000168428 0 0
75 1 0.015 0.0462463 -0.0208762 0 -1.1225e-14 7.20913e-15 0 -0.000195698 0 0
87 1 0.015 0.0938823 -0.0195222 0 -7.05507e-15 -1.17521e-14 0 -0.000283735 0 0
1 1 0.015 0.120255 -0.0170069 0 -7.03578e-15 8.53361e-16 0 -0.000302271 0 0
85 1 0.015 0.145063 -0.025598 0 1.44942e-15 1.41984e-14 0 -0.000380333 0 0
48 1 0.015 -0.145197 -0.00347305 0 -8.28793e-16 9.88671e-15 0 -9.42577e-05 0 0
73 1 0.015 -0.119453 -0.0155963 0 -4.06212e-15 3.31471e-15 0 -0.000192192 0 0
17 1 0.015 -0.0946041 -0.0018467 0 -5.11456e-15 -1.26689e-15 0 -0.000196846 0 0
2 1 0.015 -0.0703464 -0.015497 0 -9.76866e-15 -7.64012e-15 0 -0.000231077 0 0
34 1 0.015 -0.0446726 -0.00232363 0 -8.64589e-15 -1.62023e-14 0 -0.000233083 0 0
58 1 0.015 0.0210439 -0.00758143 0 -1.00238e-14 1.29053e-14 0 -0.000208011 0 0
60 1 0.015 0.0694077 -0.00604377 0 -5.05861e-15 -3.8774e-16 0 -0.000214373 0 0
54 1 0.015 -0.119295 0.0114892 0 -2.11279e-15 3.81084e-15 0 -0.000175556 0 0
26 1 0.015 -0.0690409 0.0116664 0 -5.04377e-15 -7.94979e-15 0 -0.000207076 0 0
42 1 0.015 -0.0173864 0.00132777 0 -1.52106e-14 1.9137e-14 0 -0.000169082 0 0
95 1 0.015 0.0443133 0.00709394 0 -2.65273e-15 7.63525e-15 0 -0.000232317 0 0
70 1 0.015 0.093344 0.00822607 0 -4.34314e-18 -1.16188e-14 0 -0.000215018 0 0
18 1 0.015 0.120666 0.0105391 0 -9.38579e-17 1.76456e-15 0 -0.000249744 0 0
23 1 0.015 0.146304 0.00162205 0 1.10104e-15 1.14143e-14 0 -0.000273738 0 0
36 1 0.015 -0.143661 0.0248084 0 2.30009e-15 1.11568e-14 0 -0.000197925 0 0
19 1 0.015 -0.0928617 0.0253386 0 -1.60574e-15 -1.30726e-15 0 -0.000215484 0 0
72 1 0.015 -0.0443857 0.0250688 0 -2.1078e-15 -1.79424e-14 0 -0.000239092 0 0
5 1 0.015 -0.0178579 0.0305112 0 -1.19586e-14 2.42737e-14 0 -0.00016921 0 0
94 1 0.015 0.00637425 0.0158722 0 -1.6071e-14 1.22235e-14 0 -0.00018952 0 0
102 1 0.015 0.0301125 0.0304507 0 -1.27748e-14 2.34876e-15 0 -0.000222342 0 0
77 1 0.015 0.0677215 0.0214309 0 3.9248e-15 -7.70606e-16 0 -0.000252922 0 0
81 1 0.015 0.143177 0.0293961 0 1.68376e-15 7.35208e-15 0 -0.000150698 0 0
3 1 0.015 -0.116122 0.0385082 0 3.76926e-16 3.79568e-15 0 -0.000298484 0 0
69 1 0.015 -0.0683434 0.0394722 0 1.933e-15 -8.0643e-15 0 -0.000201983 0 0
101 1 0.015 0.0061536 0.0443443 0 -8.3286e-15 1.25075e-14 0 -0.000181862 0 0
80 1 0.015 0.0535817 0.0447454 0 -7.16731e-15 -7.41084e-15 0 -0.000259656 0 0
7 1 0.015 0.0907196 0.0355609 0 8.25679e-15 -1.00989e-14 0 -0.000310764 0 0
100 1 0.015 0.116951 0.0371653 0 3.93963e-15 2.50414e-15 0 -0.000339665 0 0
83 1 0.015 -0.138456 0.0521297 0 5.00421e-15 1.14465e-14 0 -0.000356878 0 0
15 1 0.015 -0.0920241 0.0534396 0 5.65481e-15 -9.76788e-16 0 -0.000202669 0 0
67 1 0.015 -0.0440659 0.052994 0 5.11135e-15 -1.71295e-14 0 -0.000220662 0 0
65 1 0.015 -0.0179697 0.0594184 0 -4.98157e-15 2.53768e-14 0 -0.000192831 0 0
14 1 0.015 0.0305118 0.0591242 0 -2.38776e-15 1.69729e-15 0 -0.00017902 0 0
11 1 0.015 0.0767806 0.0580841 0 5.88838e-17 -1.47754e-14 0 -0.00035925 0 0
57 1 0.015 0.103732 0.061625 0 5.72677e-16 -3.35388e-15 0 -0.000192885 0 0
38 1 0.015 0.134883 0.0570896 0 -1.85595e-15 6.7732e-15 0 -0.000230916 0 0
82 1 0.015 -0.115929 0.0666556 0 9.59083e-15 3.26244e-15 0 -0.000273204 0 0
12 1 0.015 -0.0678347 0.0677615 0 7.38271e-15 -6.83369e-15 0 -0.000196344 0 0
49 1 0.015 0.00631316 0.0720904 0 1.27923e-15 9.60244e-15 0 -0.000214386 0 0
62 1 0.015 0.0551632 0.0740408 0 3.29457e-15 -8.2964e-15 0 -0.000190805 0 0
105 1 0.015 -0.115156 0.0928833 0 4.73331e-15 2.80277e-15 0 -0.000387926 0 0
104 1 0.015 -0.0910372 0.0816926 0 9.32634e-15 1.05576e-15 0 -0.000204401 0 0
50 1 0.015 -0.0444444 0.0815383 0 9.64737e-15 -1.31107e-14 0 -0.000209913 0 0
4 1 0.015 -0.018377 0.0880826 0 1.68136e-15 2.28891e-14 0 -0.000184468 0 0
89 1 0.015 0.0313412 0.0873215 0 7.37323e-15 6.23122e-16 0 -0.000203656 0 0
13 1 0.015 0.0844909 0.0841229 0 3.98547e-15 -1.24496e-14 0 -0.000207005 0 0
55 1 0.015 0.121869 0.0815031 0 -4.77912e-15 3.91787e-15 0 -0.000305905 0 0
40 1 0.015 -0.0680667 0.0976743 0 1.22262e-14 -2.08474e-16 0 -0.000100945 0 0
97 1 0.015 0.00649681 0.0985342 0 8.69634e-15 6.70659e-15 0 -0.000362709 0 0
74 1 0.015 0.0623635 0.101322 0 6.46071e-15 -9.2085e-15 0 -0.000211191 0 0
64 1 0.015 0.10464 0.102455 0 -4.85656e-15 2.07145e-15 0 -0.000312573 0 0
21 1 0.015 -0.0942529 0.110489 0 5.91705e-15 1.32424e-15 0 -0.000181774 0 0
32 1 0.015 -0.0424769 0.109919 0 1.78888e-14 -8.20183e-15 0 -0.000150922 0 0
6 1 0.015 -0.0151817 0.116841 0 1.34459e-14 1.40814e-14 0 -0.000138452 0 0
86 1 0.015 0.0127101 0.123263 0 1.30467e-14 2.50452e-15 0 -0.000365197 0 0
66 1 0.015 0.038308 0.1143 0 1.02905e-14 -2.32277e-16 0 -0.000224884 0 0
71 1 0.015 0.0835145 0.119567 0 -2.60933e-15 1.56403e-15 0 -0.00026046 0 0
111 1 0.015 -0.0720173 0.126175 0 1.74449e-15 8.18615e-17 0 -0.000247471 0 0
108 1 0.015 -0.0475994 0.137734 0 2.81495e-15 -4.69801e-15 0 -0.000284235 0 0
59 1 0.015 0.0594659 0.132868 0 1.84793e-15 2.73654e-15 0 -0.000213187 0 0
39 1 0.015 -0.0214882 0.144159 0 -5.97562e-16 5.17736e-15 0 -0.000297014 0 0
35 1 0.015 0.00527152 0.147608 0 4.08326e-16 -4.18868e-16 0 -0.000361763 0 0
79 1 0.015 0.0331678 0.142326 0 4.17993e-15 1.30769e-15 0 -0.000166754 0 0
