ITEM: TIMESTEP
550000
ITEM: NUMBER OF ATOMS
5843
ITEM: BOX BOUNDS ff ff ff
-2.5000000000000000e-01 2.5000000000000000e-01
-2.5000000000000000e-01 2.5000000000000000e-01
-1.0000000000000001e-01 1.0000000000000001e-01
ITEM: ATOMS id type radius x y z fx fy fz v_pressure c_bendingE c_stretchingE
2545 2 0.002 -0.0173246 -0.141976 -0.000266804 1.07634e-15 -2.49038e-14 -2.13051e-15 3.05266e-06 2.58397e-09 9.37608e-09
2465 2 0.002 -0.0207817 -0.143989 -1.20065e-05 -1.24842e-14 -8.80799e-15 -1.36263e-14 3.13113e-06 2.34598e-09 1.74167e-09
2703 2 0.002 -0.0103959 -0.145981 -0.000198902 -8.5226e-15 -4.09908e-15 -9.20431e-15 6.54893e-06 2.24855e-09 1.05919e-08
2862 2 0.002 -0.00347462 -0.145981 -0.000198571 -1.99797e-14 -1.07583e-14 6.53922e-15 3.28784e-06 2.51226e-09 1.07948e-08
2863 2 0.002 -0.00349053 -0.141967 -0.000597638 -4.96483e-14 -1.98737e-14 -7.48904e-14 2.65085e-06 1.21856e-09 1.69814e-08
2783 2 0.002 -0.00694343 -0.143975 -0.000416468 -2.34365e-14 -4.8577e-15 2.90158e-14 2.70226e-06 2.54908e-09 2.00502e-08
2704 2 0.002 -0.0104109 -0.141964 -0.000609722 -4.27057e-14 -2.25609e-15 -1.65856e-14 7.8288e-06 1.34045e-09 1.64135e-08
2624 2 0.002 -0.0138629 -0.143978 -0.000284443 -1.33218e-14 -2.80253e-16 2.21526e-14 3.42711e-06 2.53701e-09 1.19828e-08
2942 2 0.002 -1.92474e-05 -0.143977 -0.000247144 -4.11151e-14 5.90646e-15 9.44388e-14 2.3193e-06 2.77757e-09 1.23497e-08
3022 2 0.002 0.00344456 -0.141981 -0.000133611 -4.71279e-14 -4.36855e-14 -1.0358e-13 3.15181e-06 3.35537e-09 3.64617e-08
3655 2 0.002 0.03119 -0.14198 -0.000252253 3.10074e-14 -1.46134e-14 -3.37351e-14 6.24349e-06 1.97724e-09 8.66982e-09
3340 2 0.002 0.0173055 -0.141992 -0.000100243 1.15108e-14 -5.92792e-14 -5.07031e-14 6.07386e-06 1.19225e-09 6.66793e-09
3498 2 0.002 0.0242553 -0.141984 -0.000256188 2.62633e-14 -1.83126e-14 2.8733e-14 2.7848e-06 9.40794e-10 6.10595e-09
3419 2 0.002 0.0207846 -0.143987 -9.5063e-05 4.58043e-15 -1.46051e-14 -2.25675e-14 4.21458e-06 8.06258e-10 2.78498e-09
3576 2 0.002 0.0277183 -0.143985 -0.000138457 2.10476e-14 -8.09532e-15 3.15429e-14 4.98072e-06 1.13575e-09 4.99183e-09
63 1 0.015 -0.0572089 -0.134807 -0.00109052 5.39314e-13 4.94244e-13 1.76031e-13 -1.94828e-06 0 4.20581e-07
1622 2 0.002 -0.0588966 -0.133986 -8.41756e-05 -1.07011e-14 2.68221e-14 -2.23168e-14 1.9238e-06 6.30887e-09 1.18133e-08
1697 2 0.002 -0.0554458 -0.131989 -9.92056e-05 -1.87445e-14 4.66816e-14 3.61785e-15 7.49749e-06 1.11449e-08 4.42173e-07
1696 2 0.002 -0.0554255 -0.135992 -6.53102e-05 1.91581e-15 7.65005e-15 -2.59177e-14 2.68286e-06 6.30935e-09 1.28835e-09
2547 2 0.002 -0.0173606 -0.133942 -0.000845434 -1.92945e-14 -4.24169e-14 1.49618e-14 9.53605e-06 2.10076e-09 1.74772e-08
2468 2 0.002 -0.0208091 -0.131951 -0.00038446 -2.61545e-14 -7.29437e-14 2.47624e-14 4.44241e-06 1.76946e-09 1.55497e-08
2548 2 0.002 -0.0173765 -0.129924 -0.00104012 -3.23227e-14 -3.34135e-14 5.61629e-14 1.17477e-05 4.11051e-09 2.58413e-08
2549 2 0.002 -0.0173882 -0.125912 -0.00102561 -5.60917e-14 -1.43999e-14 -8.75719e-14 1.29557e-05 5.92401e-09 3.04247e-08
2546 2 0.002 -0.0173424 -0.137959 -0.000565441 -2.5279e-14 -3.31003e-14 1.40995e-14 3.81864e-06 1.19433e-09 1.16966e-08
2467 2 0.002 -0.0208017 -0.135967 -0.000263344 -3.19975e-14 -6.74239e-14 -5.76289e-14 3.80928e-06 1.11821e-09 1.34092e-08
2469 2 0.002 -0.0208154 -0.127939 -0.000373901 -2.02986e-14 -8.32311e-14 6.85276e-14 9.86367e-06 1.71918e-09 1.70442e-08
2466 2 0.002 -0.0207921 -0.139979 -0.00010438 -8.18171e-15 -3.46195e-14 5.25927e-14 5.82368e-06 9.85333e-10 7.69687e-09
85 1 0.015 -0.00911124 -0.126133 -0.00488718 -9.80553e-13 -2.74045e-12 -6.92682e-13 -5.78229e-06 0 1.21634e-06
2708 2 0.002 -0.0105469 -0.12587 -0.00277563 -3.72221e-14 2.37004e-14 1.73991e-14 3.50151e-05 5.95129e-08 6.45727e-07
2867 2 0.002 -0.00356408 -0.125908 -0.00220734 -2.28441e-14 3.44813e-14 -3.08873e-14 1.90051e-05 3.40422e-08 5.91483e-08
2627 2 0.002 -0.0139277 -0.131923 -0.00151206 -4.35287e-14 -1.48046e-14 2.99755e-14 1.28487e-05 6.02085e-09 2.89194e-08
2628 2 0.002 -0.0139568 -0.127898 -0.00183196 -3.51779e-14 2.21469e-14 -3.76784e-14 1.75055e-05 2.54915e-08 5.64369e-08
2706 2 0.002 -0.0104594 -0.133932 -0.00164847 -4.57782e-14 -4.79837e-15 -1.03489e-15 1.30563e-05 5.35332e-09 3.64492e-08
2707 2 0.002 -0.0104988 -0.12991 -0.00224162 -3.60898e-14 2.22648e-14 1.47503e-14 1.88648e-05 4.34507e-08 6.17279e-08
2786 2 0.002 -0.00701185 -0.131929 -0.00210319 -6.58855e-14 1.38798e-14 -4.85165e-14 8.49307e-06 1.83318e-08 6.75644e-08
2787 2 0.002 -0.00704581 -0.127903 -0.00280128 -4.98115e-14 1.58831e-14 3.16965e-14 3.13378e-05 5.00488e-08 4.68308e-07
2866 2 0.002 -0.00355493 -0.129929 -0.00211593 -4.42588e-14 2.21629e-15 -3.23324e-15 8.60388e-06 1.50504e-08 7.20766e-08
2946 2 0.002 -8.59043e-05 -0.12794 -0.00172236 -2.86272e-14 -1.21292e-14 -2.05223e-14 1.24966e-05 5.71845e-09 3.08387e-08
2784 2 0.002 -0.00696107 -0.139959 -0.000911069 -3.88905e-14 -7.20569e-15 2.78447e-15 4.63941e-06 1.34635e-09 2.44966e-08
2625 2 0.002 -0.0138769 -0.139959 -0.000671794 -2.54496e-14 -3.37055e-14 -1.52209e-14 7.75467e-06 1.42274e-09 1.45005e-08
2705 2 0.002 -0.0104313 -0.137949 -0.00110242 -4.04268e-14 1.39471e-14 2.85701e-14 9.73284e-06 1.9537e-09 2.37982e-08
2785 2 0.002 -0.00698343 -0.135945 -0.00146826 -6.38461e-14 1.55261e-14 1.78982e-14 5.96557e-06 3.19999e-09 3.81406e-08
2864 2 0.002 -0.00350795 -0.137958 -0.00109421 -6.32952e-14 3.74976e-15 6.63663e-14 2.52491e-06 1.34042e-09 2.91383e-08
2626 2 0.002 -0.0138997 -0.135942 -0.00109441 -3.74237e-14 5.85465e-15 7.85859e-15 9.81902e-06 1.94778e-09 1.94317e-08
2865 2 0.002 -0.00353088 -0.133948 -0.00163328 -5.68196e-14 -4.82293e-15 -7.09433e-14 4.2315e-06 4.61508e-09 4.31733e-08
2945 2 0.002 -7.59713e-05 -0.131953 -0.00152351 -4.66078e-14 -2.6866e-14 -6.31383e-15 5.88265e-06 3.46962e-09 3.91752e-08
2944 2 0.002 -5.50892e-05 -0.135963 -0.00110268 -6.96131e-14 -8.64766e-15 5.39212e-14 2.5652e-06 1.19216e-09 3.34486e-08
2943 2 0.002 -3.24907e-05 -0.139969 -0.000637002 -5.77338e-14 -2.98264e-14 -1.66786e-14 3.04307e-06 8.6388e-10 2.64038e-08
3023 2 0.002 0.0034193 -0.137976 -0.000567217 -6.76449e-14 -4.75216e-14 -2.36927e-14 3.06538e-06 1.79239e-09 2.94877e-08
3103 2 0.002 0.00687815 -0.135989 -0.000556436 -5.02932e-14 -8.70403e-14 5.48325e-16 4.24091e-06 1.53751e-09 1.97581e-08
3104 2 0.002 0.00687079 -0.131985 -0.000915564 -3.42616e-14 -9.74807e-14 3.94792e-14 3.70928e-06 2.19144e-09 1.27088e-08
3024 2 0.002 0.00340128 -0.133973 -0.00100543 -5.6531e-14 -5.59867e-14 1.89338e-15 2.30035e-06 1.64725e-09 2.60613e-08
3184 2 0.002 0.0103504 -0.129992 -0.000869714 1.24039e-14 -1.49001e-13 2.76679e-14 0.0058622 2.4505e-09 6.28397e-09
3263 2 0.002 0.0138308 -0.131996 -0.000753213 1.19902e-14 -1.45819e-13 1.01385e-14 5.71228e-06 1.45035e-09 5.71334e-09
3183 2 0.002 0.0103501 -0.133995 -0.00063057 -1.17653e-14 -1.0387e-13 -2.01354e-14 6.82174e-06 1.57968e-09 8.48577e-09
3025 2 0.002 0.0033919 -0.129966 -0.00128465 -2.91489e-14 -6.43381e-14 1.79698e-14 9.03967e-06 2.8803e-09 1.91781e-08
3026 2 0.002 0.00339128 -0.125958 -0.00127902 4.99693e-15 -5.08234e-14 -1.15224e-14 9.0512e-06 3.16628e-09 1.50674e-08
3105 2 0.002 0.00687012 -0.127978 -0.0010462 4.69039e-16 -1.05323e-13 -2.83341e-14 6.81702e-06 2.99408e-09 8.96877e-09
3264 2 0.002 0.0138353 -0.127993 -0.000875436 4.46994e-14 -1.57925e-13 6.84461e-15 0.00504728 2.65425e-09 5.11448e-09
3185 2 0.002 0.0103552 -0.125988 -0.000853527 3.58766e-14 -1.37994e-13 2.48328e-14 5.42518e-06 3.31275e-09 5.74515e-09
3102 2 0.002 0.00689243 -0.139994 -6.34905e-05 -5.28583e-14 -5.36669e-14 1.74037e-14 5.2205e-06 1.16315e-08 3.46582e-08
3182 2 0.002 0.0103546 -0.137997 -0.000225422 -3.43938e-14 -8.18047e-14 7.87495e-14 8.21169e-06 2.02204e-09 1.38566e-08
3262 2 0.002 0.013829 -0.135995 -0.000450447 3.50323e-15 -1.23428e-13 2.68361e-14 6.49613e-06 8.583e-10 6.82224e-09
3261 2 0.002 0.0138308 -0.139994 -7.38005e-05 -1.46805e-14 -7.16229e-14 3.58652e-14 7.10213e-06 4.04368e-09 8.27962e-09
3501 2 0.002 0.0242741 -0.129977 -0.00123507 5.81098e-14 -8.1918e-14 -2.31747e-14 0.00686351 1.28322e-09 1.06715e-08
3579 2 0.002 0.0277466 -0.131969 -0.00125037 4.34074e-14 -3.52167e-14 -5.56884e-14 7.72129e-06 8.56499e-10 1.26021e-08
3423 2 0.002 0.0207983 -0.127985 -0.00112242 6.79089e-14 -1.06451e-13 -2.3664e-14 0.00583817 1.93285e-09 8.10378e-09
3421 2 0.002 0.0207869 -0.135985 -0.000651681 3.57097e-14 -9.13932e-14 -3.41469e-14 6.09466e-06 2.94298e-10 7.51689e-09
3499 2 0.002 0.0242607 -0.13798 -0.000587534 4.38309e-14 -6.56286e-14 -7.50246e-14 6.2343e-06 2.33995e-10 7.30579e-09
3577 2 0.002 0.0277292 -0.139976 -0.000456796 3.609e-14 -1.99468e-14 -4.73579e-14 6.07677e-06 6.11456e-10 7.02328e-09
3343 2 0.002 0.0173148 -0.129993 -0.000913922 3.37036e-14 -1.5261e-13 2.89933e-14 0.00541944 1.59606e-09 6.30827e-09
3344 2 0.002 0.0173211 -0.125991 -0.000941542 5.92008e-14 -1.48754e-13 -1.10537e-14 2.50459e-06 2.83936e-09 5.89503e-09
3422 2 0.002 0.0207927 -0.131987 -0.000944427 5.54356e-14 -1.10725e-13 4.62343e-14 0.00606985 8.20708e-10 8.15593e-09
3500 2 0.002 0.0242678 -0.133979 -0.000936133 5.6752e-14 -5.16271e-14 6.50655e-14 0.00666373 4.76763e-10 9.21338e-09
3578 2 0.002 0.0277387 -0.135972 -0.00085228 5.37762e-14 -1.97299e-14 1.00568e-13 7.02999e-06 4.70553e-10 9.62409e-09
3502 2 0.002 0.0242791 -0.125972 -0.00139927 6.32653e-14 -5.93677e-14 2.21176e-14 0.00704712 2.50066e-09 1.18134e-08
3580 2 0.002 0.0277524 -0.127962 -0.00158427 5.14621e-14 -2.26263e-14 6.42507e-16 8.39727e-06 2.03002e-09 1.56988e-08
3342 2 0.002 0.01731 -0.133992 -0.000688987 2.04686e-14 -1.269e-13 -8.48346e-15 5.9219e-06 6.26575e-10 6.86384e-09
3656 2 0.002 0.0312035 -0.13797 -0.000668409 3.95159e-14 1.54958e-14 4.98086e-14 7.43954e-06 7.04838e-10 1.1517e-08
3657 2 0.002 0.0312135 -0.133964 -0.0011428 4.4716e-14 -4.86715e-15 -7.11027e-14 8.38928e-06 6.08203e-10 1.52257e-08
3658 2 0.002 0.0312214 -0.129956 -0.00161155 4.17379e-14 5.1267e-14 3.86795e-14 3.17495e-06 1.28465e-09 1.98884e-08
3341 2 0.002 0.0173065 -0.13799 -0.000375095 -1.69872e-15 -7.2231e-14 4.25778e-15 6.1698e-06 6.51424e-10 7.02215e-09
3420 2 0.002 0.0207826 -0.139984 -0.000340008 2.75325e-14 -5.29933e-14 7.05779e-14 5.6978e-06 4.37607e-10 5.83972e-09
3659 2 0.002 0.031226 -0.125942 -0.0020151 1.53863e-14 6.46929e-14 4.38648e-14 5.52032e-06 3.41347e-09 2.61742e-08
3734 2 0.002 0.0346723 -0.135965 -0.000902429 3.5992e-14 2.02405e-14 -3.10178e-14 9.03824e-06 6.81943e-10 2.14929e-08
3889 2 0.002 0.0415836 -0.135966 -0.000794582 -1.15886e-14 4.13974e-14 3.06997e-15 4.86862e-06 1.3147e-09 2.68215e-08
3966 2 0.002 0.0450436 -0.133966 -0.000930415 -2.99747e-14 5.82605e-14 -1.51596e-16 3.37668e-06 9.36166e-10 2.9987e-08
3733 2 0.002 0.03466 -0.139976 -0.000371888 2.62823e-14 7.95906e-15 4.97122e-14 8.35748e-06 3.77732e-09 1.78905e-08
3811 2 0.002 0.0381216 -0.137974 -0.000561712 7.20108e-15 3.41176e-14 -1.6932e-14 1.01862e-05 3.92927e-09 3.4752e-08
3888 2 0.002 0.0415709 -0.139979 -0.000263377 2.99525e-16 1.8123e-14 2.83273e-14 8.45603e-06 3.62028e-09 1.71955e-08
3965 2 0.002 0.0450369 -0.137979 -0.00038923 -1.18297e-14 -2.3279e-15 -7.03058e-15 4.59938e-06 4.08168e-09 2.18493e-08
3891 2 0.002 0.0416078 -0.127936 -0.0020556 -5.95647e-14 1.16391e-13 -1.17014e-14 7.07415e-06 3.12357e-09 5.52179e-08
3736 2 0.002 0.0346909 -0.12794 -0.00202453 -9.14504e-15 5.96775e-14 1.05823e-14 6.12716e-06 2.09749e-09 3.47059e-08
3813 2 0.002 0.0381467 -0.129945 -0.00180133 -2.48249e-14 9.17547e-14 2.16382e-14 6.24637e-06 1.69379e-09 4.35637e-08
3890 2 0.002 0.0415954 -0.131954 -0.00140768 -3.74711e-14 5.42389e-14 -4.90789e-15 3.80109e-06 1.17983e-09 3.83991e-08
3967 2 0.002 0.0450524 -0.129951 -0.00151116 -6.22264e-14 7.61777e-14 -7.95698e-15 2.88746e-06 1.44671e-09 3.74126e-08
3735 2 0.002 0.0346828 -0.131955 -0.00146688 2.22806e-14 6.16991e-14 2.45465e-14 3.42784e-06 8.05056e-10 2.66592e-08
3812 2 0.002 0.0381352 -0.13396 -0.00117356 1.81784e-15 4.77775e-14 -1.79512e-14 1.0649e-05 6.14681e-10 3.43288e-08
3968 2 0.002 0.045066 -0.125933 -0.00208896 -9.74979e-14 1.16179e-13 2.71893e-14 4.74385e-06 4.28593e-09 4.80302e-08
3814 2 0.002 0.0381565 -0.125923 -0.00245067 -3.94656e-14 1.14078e-13 -3.46769e-14 1.60708e-05 5.47121e-09 6.31773e-08
4042 2 0.002 0.0484972 -0.131966 -0.000938443 -6.57271e-14 1.85581e-14 -7.96177e-14 2.37837e-06 1.41852e-09 2.62982e-08
4041 2 0.002 0.0484961 -0.135981 -0.000428955 -1.89014e-14 4.4547e-14 5.07498e-14 2.38732e-06 4.61166e-09 2.62317e-08
4043 2 0.002 0.0485062 -0.127951 -0.00142053 -9.60353e-14 7.79087e-14 2.9882e-14 2.71313e-06 1.75778e-09 2.95616e-08
4119 2 0.002 0.0519587 -0.125954 -0.0011338 -1.15475e-13 3.61146e-14 2.66751e-14 3.23775e-06 1.66105e-09 2.29894e-08
4118 2 0.002 0.0519518 -0.129966 -0.000811308 -7.76624e-14 3.66201e-14 -4.92159e-14 4.19479e-06 1.41533e-09 1.74693e-08
4194 2 0.002 0.0554088 -0.127972 -0.000522706 -8.4296e-14 2.49285e-14 -5.65887e-14 7.66367e-06 9.75031e-10 1.68594e-08
4117 2 0.002 0.051948 -0.13398 -0.000423049 -4.97246e-14 1.39269e-14 6.02957e-14 2.58767e-06 3.74505e-09 1.77336e-08
4192 2 0.002 0.0554153 -0.135987 -0.00011651 -2.417e-14 1.19593e-14 -1.26478e-14 2.25383e-06 3.32471e-09 4.64532e-09
4193 2 0.002 0.0554075 -0.131976 -0.000301012 -6.81109e-14 1.61561e-14 3.73877e-14 2.94951e-06 2.62193e-09 8.29346e-09
4269 2 0.002 0.0588624 -0.125986 -0.000144144 -7.76454e-14 -1.96518e-15 -7.99453e-14 6.91044e-06 1.89756e-09 1.49005e-08
938 2 0.002 -0.0935228 -0.109989 -0.000321454 1.20939e-14 -2.77647e-14 2.497e-14 1.59163e-06 3.40098e-09 1.07928e-08
1068 2 0.002 -0.0865942 -0.109994 -0.000341474 1.43588e-14 -8.70103e-14 3.08308e-14 2.21792e-06 2.58019e-09 1.36559e-08
1002 2 0.002 -0.0900636 -0.111987 -0.000199276 8.73407e-15 -4.85863e-14 1.30782e-14 2.11623e-06 3.27791e-09 4.8314e-09
2470 2 0.002 -0.0208148 -0.123937 -0.000169723 -8.60079e-15 -6.94858e-14 -4.16943e-16 5.36035e-06 1.33712e-09 2.3577e-08
2550 2 0.002 -0.0173774 -0.121915 -0.000694237 -1.60131e-14 -5.49574e-15 -9.677e-15 1.30993e-05 3.64406e-09 3.77915e-08
2551 2 0.002 -0.017359 -0.117926 -0.000168152 -2.60868e-14 4.72e-14 -6.14523e-14 1.13185e-05 2.04635e-09 2.54415e-08
2630 2 0.002 -0.0139307 -0.119897 -0.00103896 -3.23442e-14 5.91246e-14 -7.24081e-14 1.44302e-05 6.33477e-09 4.1986e-08
2788 2 0.002 -0.00704633 -0.123864 -0.00259147 -2.78493e-14 4.25676e-14 -4.43364e-14 3.16042e-05 4.83367e-08 4.54042e-07
2789 2 0.002 -0.00701365 -0.119894 -0.00161094 -1.14428e-14 6.63635e-14 8.65684e-15 1.78894e-05 1.53887e-08 6.87913e-08
2868 2 0.002 -0.00355616 -0.121908 -0.00176102 -7.27551e-15 5.09334e-14 -1.91039e-14 1.76054e-05 1.29339e-08 6.47596e-08
2710 2 0.002 -0.0104627 -0.117899 -0.00103629 -5.05017e-15 9.23634e-14 3.01781e-14 1.46511e-05 5.34147e-09 4.83396e-08
2629 2 0.002 -0.0139588 -0.123887 -0.00167849 -3.11053e-14 3.96573e-14 2.8066e-14 1.85195e-05 2.39881e-08 7.38067e-08
2709 2 0.002 -0.0105011 -0.121874 -0.00192442 -9.25816e-15 5.74576e-14 6.23708e-14 2.03532e-05 4.11399e-08 7.93908e-08
2947 2 0.002 -8.48877e-05 -0.123934 -0.0015472 -2.64919e-16 -1.52081e-14 -1.55706e-14 1.28283e-05 5.02e-09 3.09092e-08
2869 2 0.002 -0.00352948 -0.117936 -0.000994255 2.1018e-14 3.42173e-14 4.70062e-14 1.33723e-05 3.80303e-09 3.5219e-08
2948 2 0.002 -7.03756e-05 -0.119953 -0.00102317 2.3634e-14 2.23327e-14 -2.51323e-14 1.24437e-05 2.74371e-09 3.58106e-08
2790 2 0.002 -0.00698514 -0.115926 -0.000713442 -1.07929e-14 1.03595e-13 -3.78311e-14 1.30543e-05 3.29029e-09 3.84335e-08
2631 2 0.002 -0.0139005 -0.115914 -0.000316499 -1.83692e-14 8.30342e-14 -8.72882e-16 1.18636e-05 2.1448e-09 3.09711e-08
2711 2 0.002 -0.0104331 -0.113922 -0.000209285 -1.56674e-14 1.19218e-13 2.34793e-14 5.93333e-06 2.06447e-09 3.64319e-08
2870 2 0.002 -0.00350442 -0.113968 -0.000218724 1.95725e-14 1.01094e-13 -8.06187e-14 1.0805e-05 1.67596e-09 2.10176e-08
2949 2 0.002 -4.42547e-05 -0.115987 -0.00033266 3.20507e-14 -2.71992e-15 8.96358e-14 5.49742e-06 1.22033e-09 2.55691e-08
3107 2 0.002 0.00688944 -0.120004 -0.000381677 7.82111e-14 -9.30352e-14 -7.29844e-14 7.99699e-06 2.0503e-09 1.57591e-08
3266 2 0.002 0.0138601 -0.120023 -0.000246531 7.65438e-14 -1.37261e-13 -4.27208e-14 5.96476e-06 4.41607e-09 6.85687e-09
3186 2 0.002 0.010366 -0.122 -0.000518392 7.11315e-14 -1.29889e-13 -1.55758e-14 5.9265e-06 3.37784e-09 7.39024e-09
3027 2 0.002 0.00339953 -0.121966 -0.000940549 3.03497e-14 -5.81836e-14 8.64196e-14 4.78702e-06 2.41193e-09 2.03456e-08
3106 2 0.002 0.00687586 -0.123978 -0.000871415 3.83162e-14 -1.13182e-13 -5.72814e-15 3.4744e-06 2.96824e-09 9.59927e-09
3265 2 0.002 0.0138437 -0.123995 -0.000724749 6.86046e-14 -1.54229e-13 -4.66608e-14 4.92931e-06 3.70704e-09 5.18729e-09
3028 2 0.002 0.00341847 -0.118001 -0.000342036 7.18719e-14 -1.47502e-14 -1.23244e-13 5.08581e-06 1.34533e-09 2.7072e-08
3583 2 0.002 0.0277685 -0.115972 -0.0013503 4.98562e-15 7.88728e-14 -8.72487e-14 2.75237e-06 2.41719e-09 3.37184e-08
3584 2 0.002 0.0277812 -0.11202 -0.000768192 4.6607e-14 6.14297e-14 1.70332e-13 3.48646e-06 1.83811e-09 3.20567e-08
3345 2 0.002 0.0173326 -0.122001 -0.0006848 8.28843e-14 -1.4146e-13 1.90685e-14 1.74295e-06 3.28969e-09 6.71799e-09
3424 2 0.002 0.0208051 -0.123984 -0.00108745 7.36013e-14 -1.15425e-13 4.53099e-15 2.89154e-06 2.78901e-09 8.41977e-09
3426 2 0.002 0.0208397 -0.116047 -0.000215438 6.90092e-14 -3.22114e-14 -9.41894e-14 2.65832e-06 2.21849e-09 2.3592e-08
3503 2 0.002 0.0242849 -0.12197 -0.0013394 5.0729e-14 -4.83751e-14 -4.80869e-14 3.73663e-06 3.00262e-09 1.41677e-08
3504 2 0.002 0.0242965 -0.11799 -0.00101219 6.84339e-14 -1.8782e-14 1.08273e-13 2.10937e-06 2.15696e-09 2.23169e-08
3505 2 0.002 0.0243134 -0.114037 -0.000482364 4.60816e-14 2.25234e-14 -2.37031e-14 3.04012e-06 1.15347e-09 3.0442e-08
3581 2 0.002 0.0277559 -0.123952 -0.0017695 4.14943e-14 2.90432e-14 3.38882e-14 9.29484e-06 3.77204e-09 1.994e-08
3582 2 0.002 0.0277587 -0.119949 -0.00170879 3.3374e-14 3.02725e-14 2.68865e-14 5.11113e-06 3.77936e-09 2.49985e-08
3425 2 0.002 0.0208182 -0.12 -0.000774135 7.29082e-14 -7.50939e-14 -7.44832e-14 2.14833e-06 2.5435e-09 1.22981e-08
3346 2 0.002 0.0173547 -0.118044 -0.000116455 8.66372e-14 -1.13192e-13 3.37085e-15 2.21762e-06 3.75053e-09 1.14668e-08
3660 2 0.002 0.0312276 -0.121925 -0.00225905 -8.98137e-15 5.83893e-14 -8.47689e-14 1.32722e-05 7.10275e-09 3.9425e-08
3661 2 0.002 0.0312266 -0.11792 -0.00218027 -1.16003e-14 1.21419e-13 -5.09856e-14 1.45186e-05 8.98825e-09 4.41246e-08
3662 2 0.002 0.0312384 -0.113951 -0.00167871 -3.15462e-15 1.24163e-13 -2.26602e-14 1.45294e-05 4.91054e-09 5.30409e-08
3663 2 0.002 0.0312465 -0.110005 -0.000910016 1.56475e-15 1.49668e-13 -5.56182e-14 5.88641e-06 2.85306e-09 3.25549e-08
109 1 0.015 0.0403167 -0.117524 -0.00629208 -1.35265e-12 2.53307e-12 7.69352e-13 -6.65482e-06 0 2.16223e-06
3818 2 0.002 0.0381572 -0.109938 -0.00162244 3.06573e-14 1.25978e-13 9.49296e-14 8.80488e-06 7.46193e-09 8.03508e-08
3894 2 0.002 0.0416524 -0.115814 -0.00357962 -4.20505e-14 1.40716e-13 8.0936e-14 4.70783e-05 7.64032e-08 1.21766e-06
3895 2 0.002 0.0416237 -0.111878 -0.00232358 1.16773e-15 1.28156e-13 1.13009e-13 1.14955e-05 3.35276e-08 1.30173e-07
3971 2 0.002 0.0450887 -0.113872 -0.00240449 -3.59557e-14 1.0531e-13 4.29575e-14 1.08593e-05 2.72338e-08 1.09512e-07
3972 2 0.002 0.0450713 -0.109922 -0.00148835 3.84601e-14 9.27607e-14 -1.66556e-16 7.38594e-06 9.44561e-09 4.89766e-08
3740 2 0.002 0.0347026 -0.111935 -0.00181404 -1.50321e-14 1.88972e-13 -1.2161e-13 8.57094e-06 7.64324e-09 6.47801e-08
3737 2 0.002 0.0346944 -0.123919 -0.00254171 -2.74923e-14 1.15655e-13 -9.59056e-14 1.54635e-05 8.64083e-09 4.82698e-08
3739 2 0.002 0.0346946 -0.115887 -0.00266629 -1.41385e-14 1.46446e-13 1.22456e-13 2.24534e-05 3.40128e-08 1.10965e-07
3816 2 0.002 0.0381543 -0.117839 -0.00375528 -3.91934e-14 1.67931e-13 1.10563e-13 4.66195e-05 7.72306e-08 1.18109e-06
3817 2 0.002 0.0381634 -0.113867 -0.0027674 -2.21003e-14 1.40603e-13 1.58242e-13 2.61425e-05 6.45534e-08 1.27667e-07
3969 2 0.002 0.0450818 -0.121906 -0.00260152 -8.1593e-14 1.00185e-13 -5.88802e-14 1.89211e-05 1.49469e-08 7.31653e-08
3738 2 0.002 0.0346921 -0.119888 -0.00290854 -2.24446e-14 1.44734e-13 8.80049e-14 2.12401e-05 2.82101e-08 9.71295e-08
3815 2 0.002 0.0381616 -0.121893 -0.00312756 -5.34153e-14 1.36025e-13 2.48221e-14 2.32974e-05 5.06119e-08 1.04457e-07
3892 2 0.002 0.0416241 -0.123913 -0.0027502 -6.65178e-14 1.25915e-13 -2.77233e-14 1.94936e-05 1.48257e-08 8.8376e-08
3893 2 0.002 0.0416498 -0.119881 -0.00350467 -7.73074e-14 1.60222e-13 1.11644e-14 3.34859e-05 6.39362e-08 3.34257e-07
3970 2 0.002 0.0450941 -0.117873 -0.0028014 -8.7361e-14 1.21224e-13 5.6752e-14 2.28475e-05 5.03292e-08 8.79079e-08
4046 2 0.002 0.0485333 -0.115905 -0.00189632 -5.50518e-14 5.35152e-14 4.07782e-14 1.50913e-05 8.23719e-09 4.53513e-08
4196 2 0.002 0.055413 -0.119958 -0.000756921 -7.7772e-14 2.18169e-14 -6.47337e-14 3.98024e-06 1.87023e-09 1.19265e-08
4045 2 0.002 0.0485259 -0.119913 -0.00202089 -7.81647e-14 7.97195e-14 -1.04113e-13 1.48341e-05 5.88288e-09 4.22708e-08
4047 2 0.002 0.0485294 -0.111925 -0.00138615 5.29179e-15 4.74223e-14 3.15613e-14 6.9348e-06 6.14296e-09 5.45164e-08
4044 2 0.002 0.0485163 -0.123932 -0.00181624 -1.13836e-13 6.55103e-14 -1.64727e-14 6.50155e-06 3.76586e-09 3.81698e-08
4120 2 0.002 0.0519644 -0.121942 -0.00132913 -1.12105e-13 4.6509e-14 -2.35592e-14 5.28037e-06 2.43092e-09 2.36065e-08
4121 2 0.002 0.0519705 -0.117934 -0.00130661 -9.93932e-14 4.64318e-14 6.68431e-14 1.0822e-05 2.54424e-09 2.22965e-08
4122 2 0.002 0.0519745 -0.11394 -0.00100412 -1.19338e-14 2.50662e-14 -1.23446e-13 5.44377e-06 2.77674e-09 3.2856e-08
4195 2 0.002 0.0554098 -0.123966 -0.000710835 -1.08672e-13 1.34472e-14 3.53386e-14 8.06659e-06 1.29111e-09 1.63034e-08
4197 2 0.002 0.0554164 -0.115957 -0.000574885 -8.24038e-14 -1.38255e-14 4.76509e-14 4.02185e-06 1.998e-09 1.48312e-08
4123 2 0.002 0.051975 -0.109971 -0.000450604 -9.98721e-15 -8.70768e-15 1.5506e-13 2.605e-06 2.40041e-09 4.30388e-08
4198 2 0.002 0.0554186 -0.111974 -0.000140394 -2.53649e-14 -1.15446e-14 -1.1778e-14 2.90245e-06 1.72763e-09 2.96709e-08
4270 2 0.002 0.0588631 -0.12198 -0.000263715 -9.77928e-14 9.6699e-15 4.95442e-14 6.22924e-06 1.82319e-09 8.15645e-09
4271 2 0.002 0.058866 -0.117974 -0.000198519 -7.75696e-14 -1.73915e-14 -5.38415e-14 2.94711e-06 2.50905e-09 6.00897e-09
4629 2 0.002 0.0762045 -0.115982 -9.09078e-06 -7.18274e-14 1.01676e-13 -1.34663e-15 4.27941e-06 9.46906e-10 3.016e-09
4766 2 0.002 0.0831489 -0.112007 -0.000666072 -8.22641e-14 1.37827e-13 -6.63354e-15 2.93352e-06 1.08114e-08 2.53638e-08
4833 2 0.002 0.0866076 -0.110012 -0.000755722 -8.24018e-14 1.42254e-13 -9.47327e-14 4.02986e-06 1.34194e-08 1.71189e-08
4832 2 0.002 0.0866426 -0.114051 -0.000988258 -6.32628e-14 9.99379e-14 3.56992e-14 8.09091e-06 2.48647e-08 4.15527e-07
66 1 0.015 0.088532 -0.116097 -0.00198747 -4.85331e-14 -2.8474e-13 -4.3671e-14 -2.52701e-06 0 4.04184e-07
4699 2 0.002 0.0796742 -0.109984 -0.000280784 -1.34167e-13 1.62245e-13 1.72071e-14 6.75808e-06 1.10859e-09 1.15742e-08
4963 2 0.002 0.0935247 -0.109995 -0.000226636 -5.08865e-14 6.50352e-14 3.77226e-14 4.32104e-06 2.65125e-09 3.26919e-09
4897 2 0.002 0.0900873 -0.11602 -0.000498488 -3.31374e-14 4.22698e-14 4.06961e-14 2.23828e-06 2.2705e-08 2.21261e-08
4765 2 0.002 0.0831456 -0.116003 -0.000551522 -6.84627e-14 8.64035e-14 -1.4672e-13 2.87146e-06 1.31597e-08 7.40294e-09
4764 2 0.002 0.0831381 -0.119997 -0.000208335 -3.54894e-14 5.14625e-14 6.1921e-14 2.75011e-06 2.96217e-09 1.21525e-09
4698 2 0.002 0.0796737 -0.113987 -0.000318579 -9.63593e-14 1.25936e-13 7.24638e-15 5.4927e-06 3.0718e-09 6.05845e-09
4898 2 0.002 0.090078 -0.112012 -0.000552074 -2.71406e-14 7.55801e-14 -1.89501e-13 5.98679e-06 1.86157e-08 6.30694e-09
4831 2 0.002 0.0866109 -0.118014 -0.000406995 -3.54027e-14 3.42941e-14 -1.08451e-13 2.63166e-06 1.84769e-08 1.7808e-09
4697 2 0.002 0.0796717 -0.117989 -0.000205738 -5.12668e-14 8.55112e-14 1.3312e-14 3.91185e-06 1.78078e-09 2.73587e-09
4696 2 0.002 0.0796696 -0.121994 -5.72685e-05 -1.33429e-14 5.01339e-14 -3.55629e-14 2.76302e-06 5.7308e-10 1.1724e-09
878 2 0.002 -0.096944 -0.0959755 -0.00106193 1.00427e-13 -5.21603e-14 -8.73756e-14 1.02324e-05 2.04476e-09 1.93864e-08
754 2 0.002 -0.103886 -0.0959884 -0.000286969 1.006e-13 -6.56144e-14 -6.52621e-14 6.62914e-06 1.30788e-09 8.74431e-09
753 2 0.002 -0.103895 -0.0999955 -0.000223349 5.8716e-14 -4.32764e-14 4.00067e-15 6.35553e-06 2.32854e-09 1.08802e-08
814 2 0.002 -0.100433 -0.10199 -0.000437445 5.1818e-14 -5.14367e-14 -2.73641e-15 4.13367e-06 2.93335e-09 2.13245e-08
816 2 0.002 -0.100408 -0.0939778 -0.000591854 1.36952e-13 -9.68125e-14 6.08369e-14 4.25988e-06 1.32231e-09 1.32289e-08
876 2 0.002 -0.0969678 -0.103985 -0.000662308 3.39946e-14 -3.95551e-14 7.08835e-15 4.05423e-06 1.744e-09 1.66574e-08
877 2 0.002 -0.0969561 -0.0999829 -0.00094544 7.47533e-14 -7.11696e-14 -5.91044e-16 9.62054e-06 1.92224e-09 2.20648e-08
813 2 0.002 -0.100444 -0.105989 -0.000217448 4.12793e-15 -1.5273e-14 -6.49007e-15 0.00674015 2.61484e-09 1.064e-08
875 2 0.002 -0.096982 -0.107989 -0.000319861 2.60094e-14 -3.17996e-14 2.68639e-14 7.05465e-06 3.01238e-09 1.27064e-08
815 2 0.002 -0.100418 -0.0979842 -0.00060818 9.17844e-14 -5.36916e-14 5.18388e-14 4.01331e-06 1.37789e-09 1.38328e-08
694 2 0.002 -0.107363 -0.098 -7.06026e-05 4.00817e-14 -3.78432e-14 4.17523e-14 1.84006e-06 1.18365e-09 4.4486e-09
18 1 0.015 -0.0863845 -0.0954461 -0.00482267 -5.49508e-13 -1.45399e-12 -9.01937e-14 -6.01028e-06 0 1.35829e-06
1072 2 0.002 -0.0865383 -0.0939852 -0.00288477 2.74116e-14 -1.26618e-14 -2.57146e-14 4.2009e-05 7.34744e-08 1.08166e-06
1206 2 0.002 -0.0796223 -0.0939943 -0.00140841 -6.35827e-14 3.54377e-14 -3.30609e-14 1.81927e-05 1.57491e-08 6.70788e-08
942 2 0.002 -0.0934742 -0.093969 -0.0015593 9.53757e-14 -4.18157e-14 -4.69462e-14 1.36356e-05 6.87926e-09 3.24571e-08
1069 2 0.002 -0.0865724 -0.105996 -0.000933755 1.34981e-14 -8.97913e-14 3.03791e-14 9.78325e-06 4.00777e-09 2.28406e-08
1204 2 0.002 -0.0796497 -0.101994 -0.000809495 -5.63258e-14 -5.6504e-14 3.33666e-14 6.68309e-06 4.0848e-09 3.90945e-08
940 2 0.002 -0.0934933 -0.101986 -0.00119658 6.67142e-14 -6.68173e-14 1.03805e-15 1.03604e-05 3.0478e-09 2.38403e-08
1004 2 0.002 -0.0900309 -0.103993 -0.00122351 1.98304e-14 -5.59791e-14 1.26638e-13 1.02873e-05 4.2799e-09 2.11001e-08
1136 2 0.002 -0.0831025 -0.104001 -0.001029 -2.60756e-14 -6.25417e-14 1.3337e-13 6.09402e-06 5.05614e-09 3.33911e-08
1205 2 0.002 -0.0796295 -0.0979944 -0.00128011 -5.64283e-14 2.1798e-15 -2.94907e-14 1.79898e-05 1.02331e-08 7.7844e-08
1137 2 0.002 -0.0830754 -0.100005 -0.00171149 -5.26133e-14 -3.32948e-14 3.88535e-14 1.81117e-05 2.84495e-08 6.17343e-08
1138 2 0.002 -0.0830529 -0.096001 -0.00233902 -2.49497e-14 2.27938e-15 -2.43022e-15 3.18498e-05 5.04745e-08 4.2263e-07
941 2 0.002 -0.0934827 -0.0979802 -0.00151589 8.94613e-14 -6.09772e-14 2.02935e-14 1.26653e-05 5.36961e-09 3.13587e-08
1005 2 0.002 -0.0900184 -0.0999957 -0.00180391 4.73937e-14 -5.83905e-14 -2.04239e-15 1.46162e-05 1.5912e-08 3.89193e-08
1006 2 0.002 -0.0900146 -0.0959816 -0.00217906 8.14065e-14 -3.88134e-14 2.59906e-14 1.87404e-05 4.74619e-08 5.88734e-08
1070 2 0.002 -0.0865508 -0.102003 -0.00163256 2.15215e-14 -5.61736e-14 6.69106e-15 1.46609e-05 1.14724e-08 4.54873e-08
1071 2 0.002 -0.0865387 -0.0980157 -0.00247095 1.45165e-14 -4.68245e-14 -4.90945e-14 2.6175e-05 4.93212e-08 2.38593e-07
939 2 0.002 -0.0935077 -0.105987 -0.000759849 2.92888e-14 -6.49633e-14 -5.49039e-14 2.69191e-06 1.71636e-09 1.57287e-08
1003 2 0.002 -0.0900478 -0.107988 -0.000660426 1.24908e-14 -6.69125e-14 -5.12011e-14 2.40283e-06 2.60194e-09 1.15603e-08
1135 2 0.002 -0.0831311 -0.108004 -0.00040637 -1.12621e-16 -8.18247e-14 -4.37236e-14 2.28933e-06 2.10189e-09 2.58986e-08
1203 2 0.002 -0.0796764 -0.105997 -0.000282358 -4.1335e-14 -7.45497e-14 -7.12964e-14 5.05843e-06 1.96613e-09 2.33126e-08
1274 2 0.002 -0.0762022 -0.0959914 -0.000537527 -7.40499e-14 1.96653e-14 -1.57296e-13 1.36701e-05 3.37009e-09 3.9423e-08
1273 2 0.002 -0.0762175 -0.0999872 -0.000288506 -1.14592e-13 -2.51849e-14 -1.62242e-14 6.558e-06 2.24851e-09 4.34728e-08
3585 2 0.002 0.0277891 -0.108072 -8.98284e-05 2.00972e-14 9.52793e-14 -2.79153e-14 4.10462e-06 2.413e-09 1.59866e-08
3664 2 0.002 0.0312527 -0.106068 -2.41125e-05 4.48775e-14 6.32637e-14 2.27069e-13 3.04895e-06 2.4706e-09 2.2207e-08
3896 2 0.002 0.0416027 -0.107961 -0.00113489 5.87661e-14 1.04995e-13 -2.39446e-14 1.48853e-05 5.08012e-09 6.64156e-08
3741 2 0.002 0.0347044 -0.108006 -0.000798962 2.8496e-14 1.40261e-13 -4.8935e-17 4.32318e-06 2.29488e-09 4.7429e-08
3819 2 0.002 0.0381478 -0.106023 -0.000460539 5.70088e-14 1.05704e-13 4.87103e-16 3.25262e-06 2.18329e-09 6.33381e-08
3973 2 0.002 0.0450496 -0.105993 -0.000493642 8.65799e-14 -2.33181e-14 1.89251e-13 5.19345e-06 3.72374e-09 2.60905e-08
4048 2 0.002 0.04852 -0.107972 -0.000630472 7.75025e-14 4.43874e-14 -1.37281e-13 2.6178e-06 3.63195e-09 3.07024e-08
4634 2 0.002 0.0761897 -0.0959506 -0.000185087 -1.51146e-13 1.69432e-13 8.99398e-14 3.08215e-06 1.07444e-09 2.3098e-08
4702 2 0.002 0.0796514 -0.0979434 -0.000436602 -1.53628e-13 1.86105e-13 4.2701e-14 7.69177e-06 1.84241e-09 1.16732e-08
4769 2 0.002 0.0831182 -0.099948 -0.000588284 -1.48681e-13 1.95888e-13 -1.07003e-14 6.49486e-06 2.34632e-09 7.28713e-09
4836 2 0.002 0.0865866 -0.0979392 -0.000757287 -1.28225e-13 1.72166e-13 -5.30722e-14 6.63387e-06 2.14841e-09 7.65006e-09
4902 2 0.002 0.0900572 -0.0959334 -0.000714668 -9.15738e-14 1.63011e-13 9.08116e-14 6.90227e-06 1.44596e-09 7.86237e-09
4770 2 0.002 0.0831153 -0.0959304 -0.000842175 -1.38048e-13 1.59064e-13 -7.64161e-15 8.18439e-06 3.42794e-09 1.33056e-08
4837 2 0.002 0.0865888 -0.0939217 -0.00102124 -1.03376e-13 1.62498e-13 3.31371e-14 8.52802e-06 3.77629e-09 1.20307e-08
4703 2 0.002 0.079647 -0.0939359 -0.000795428 -1.45553e-13 1.37005e-13 -2.45574e-14 4.92035e-06 3.0966e-09 2.3781e-08
4768 2 0.002 0.0831236 -0.103968 -0.00050034 -1.48336e-13 1.89665e-13 5.57554e-15 5.98691e-06 2.05292e-09 6.22488e-09