ITEM: TIMESTEP
450000
ITEM: NUMBER OF ATOMS
5843
ITEM: BOX BOUNDS ff ff ff
-2.5000000000000000e-01 2.5000000000000000e-01
-2.5000000000000000e-01 2.5000000000000000e-01
-1.0000000000000001e-01 1.0000000000000001e-01
ITEM: ATOMS id type radius x y z fx fy fz v_pressure c_bendingE c_stretchingE
98 1 0.015 -0.0134901 -0.149042 -0.00140557 1.03473e-09 -7.21491e-11 -2.56761e-11 -6.24966e-06 0 3.42969e-06
2624 2 0.002 -0.0138853 -0.144055 -0.000358044 8.9334e-12 -1.86597e-12 2.01989e-11 7.13269e-06 3.22345e-08 2.06927e-06
2703 2 0.002 -0.0104416 -0.146058 -0.00049843 6.75501e-12 2.31863e-12 2.01082e-11 5.53569e-06 4.06024e-08 1.44115e-06
2783 2 0.002 -0.00698212 -0.143995 -1.42614e-05 6.93021e-12 4.34889e-12 -1.86803e-11 5.16043e-06 1.62586e-08 2.60393e-08
3655 2 0.002 0.0311726 -0.141979 -6.13029e-05 -1.25181e-12 -1.28335e-12 -4.15954e-13 5.28477e-06 1.54671e-09 5.95286e-09
3498 2 0.002 0.0242397 -0.14197 -7.29676e-05 -5.73229e-12 -2.97609e-12 -1.96607e-11 6.18644e-06 4.96711e-10 8.63338e-09
3576 2 0.002 0.0277082 -0.143981 -4.86199e-05 -1.63749e-12 -6.63631e-13 6.8305e-12 2.51382e-06 4.34402e-10 5.19495e-09
3419 2 0.002 0.0207788 -0.143979 1.08518e-05 -5.954e-12 -5.85839e-13 1.33547e-11 5.7069e-06 4.26465e-10 6.44544e-09
1477 2 0.002 -0.0658403 -0.130026 -0.000480754 9.68412e-13 -1.22581e-12 -4.69784e-11 7.85304e-07 1.12496e-08 4.06797e-08
1478 2 0.002 -0.0658497 -0.126045 -0.000692604 4.63116e-13 7.43977e-12 -1.91003e-12 3.95501e-06 6.82573e-09 3.80727e-07
1406 2 0.002 -0.069297 -0.128016 -0.000358665 5.04312e-12 2.80967e-12 2.38952e-11 1.2096e-07 7.90197e-09 1.11643e-08
56 1 0.015 -0.0677759 -0.129685 -0.00108316 2.81313e-10 -1.17583e-10 1.70901e-12 -2.76701e-06 0 4.10192e-07
1336 2 0.002 -0.0727451 -0.125997 -0.000124188 1.14299e-12 2.39425e-12 -7.1007e-12 1.68554e-06 1.74195e-09 4.99059e-10
1849 2 0.002 -0.0484702 -0.127982 -0.000551326 6.77783e-13 -1.41494e-13 -1.03755e-11 2.18973e-06 7.64988e-10 3.29745e-09
1774 2 0.002 -0.0519335 -0.125983 -0.000766238 -5.90822e-14 5.66379e-12 5.03657e-12 2.37358e-06 7.05751e-10 4.06911e-09
1848 2 0.002 -0.0484855 -0.131984 -0.000245616 -1.67204e-12 1.41209e-12 5.55145e-12 3.21991e-06 7.24676e-10 2.03496e-09
1550 2 0.002 -0.0623624 -0.12801 -0.000621261 -5.89697e-13 8.85517e-12 8.79158e-12 4.33543e-06 5.1446e-09 4.55061e-09
1624 2 0.002 -0.058884 -0.125994 -0.000709734 -1.36485e-12 1.08941e-11 -3.72373e-12 4.68747e-06 1.67206e-09 4.72217e-09
1623 2 0.002 -0.0588865 -0.129994 -0.000474351 -1.31164e-12 7.11432e-12 -5.27656e-12 3.69006e-06 7.88765e-10 2.54869e-09
1622 2 0.002 -0.0588878 -0.133993 -0.000178486 -9.47071e-13 3.32273e-12 -2.9767e-12 3.00596e-06 1.04024e-09 1.76829e-09
1772 2 0.002 -0.0519553 -0.133989 -0.000192123 -2.15694e-12 2.68159e-12 2.58313e-12 1.55769e-06 5.99997e-10 2.29002e-09
1697 2 0.002 -0.0554182 -0.131988 -0.000335482 -1.90169e-12 5.12686e-12 -1.69516e-12 1.67012e-06 3.21203e-10 2.08497e-09
1698 2 0.002 -0.0554117 -0.127987 -0.00061766 -1.50955e-12 8.26256e-12 2.56263e-12 4.17114e-06 4.53036e-10 3.26454e-09
1773 2 0.002 -0.0519456 -0.129984 -0.000462077 -1.60436e-12 4.09526e-12 -2.38919e-12 1.9128e-06 2.70592e-10 2.74075e-09
1549 2 0.002 -0.0623573 -0.132001 -0.000291941 -6.35242e-14 4.91951e-12 1.21111e-11 3.11265e-06 4.10178e-09 1.78084e-09
1696 2 0.002 -0.0554229 -0.135992 -9.74752e-05 -9.48809e-13 2.29308e-12 2.76783e-12 1.29933e-06 6.17372e-10 1.33599e-09
1847 2 0.002 -0.0484959 -0.135992 -4.30229e-05 -1.8034e-12 8.49203e-13 -6.96257e-12 2.27247e-06 6.91588e-10 1.23424e-09
1925 2 0.002 -0.0449945 -0.125983 -0.000589371 3.88086e-12 -5.15012e-12 -7.41801e-12 2.69215e-06 1.72111e-09 5.12172e-09
2001 2 0.002 -0.0415463 -0.127986 -0.000131133 3.31336e-12 -7.18897e-12 1.0362e-11 2.52569e-06 1.48201e-09 4.7829e-09
1924 2 0.002 -0.0450144 -0.129984 -0.000230982 3.88833e-13 -2.18315e-12 1.0109e-11 3.99808e-06 1.03006e-09 2.98589e-09
1923 2 0.002 -0.0450314 -0.13399 2.66689e-05 -5.18114e-13 -1.49107e-12 -5.9451e-12 2.63706e-06 1.59096e-09 1.81616e-09
3502 2 0.002 0.0242105 -0.125881 -0.00105686 4.42671e-12 -2.9555e-12 -1.93253e-12 1.17704e-05 5.15743e-09 2.19246e-08
3344 2 0.002 0.0172902 -0.12588 -0.000183454 7.34723e-12 -3.80364e-12 6.37096e-12 9.92806e-06 1.80381e-09 1.71236e-08
3422 2 0.002 0.0207591 -0.131906 -0.00033145 -5.68651e-13 -5.7589e-12 -1.09755e-12 4.01096e-06 8.12685e-10 1.04055e-08
3423 2 0.002 0.020753 -0.127885 -0.000540104 5.20725e-12 -3.9023e-12 7.67848e-12 9.62779e-06 1.72251e-09 1.45687e-08
3501 2 0.002 0.0242214 -0.1299 -0.000693276 2.16063e-12 -4.138e-12 1.30038e-11 9.14445e-06 1.67867e-09 1.43362e-08
3579 2 0.002 0.0276952 -0.13192 -0.000628327 -8.93037e-13 -5.1839e-12 2.75743e-12 4.32763e-06 1.80902e-09 1.58236e-08
3580 2 0.002 0.0276842 -0.127903 -0.00104796 1.0356e-12 -5.1454e-12 -1.61148e-11 1.08914e-05 3.80992e-09 2.47335e-08
3499 2 0.002 0.0242337 -0.137945 -0.000203388 -6.70103e-12 -5.56308e-12 -1.11639e-12 6.69226e-06 5.1562e-10 8.63022e-09
3578 2 0.002 0.0277003 -0.135939 -0.00033272 -3.50114e-12 -5.26944e-12 -4.89193e-13 7.01194e-06 9.43029e-10 9.576e-09
3421 2 0.002 0.0207651 -0.135929 -0.000155408 -6.73676e-12 -7.14815e-12 -1.72078e-11 7.01325e-06 4.70953e-10 8.70167e-09
3500 2 0.002 0.0242288 -0.133921 -0.000406107 -2.95097e-12 -6.14447e-12 2.06259e-13 3.79098e-06 9.13329e-10 1.0464e-08
3656 2 0.002 0.0311711 -0.137958 -0.000149073 -1.81456e-12 -3.3976e-12 -3.69475e-12 6.3039e-06 1.64827e-09 7.69517e-09
3657 2 0.002 0.0311704 -0.133943 -0.000389326 -1.58438e-12 -4.26751e-12 4.1582e-12 2.81005e-06 1.47324e-09 1.87927e-08
3658 2 0.002 0.0311595 -0.129928 -0.000782084 -8.43929e-13 -3.73541e-12 7.27945e-13 3.29842e-06 1.87285e-09 2.64428e-08
3577 2 0.002 0.0277036 -0.13996 -0.000152032 -3.8854e-12 -3.06975e-12 3.33302e-12 2.97052e-06 6.44001e-10 6.93548e-09
3659 2 0.002 0.0311483 -0.125914 -0.00129025 5.49692e-14 7.43586e-13 1.6798e-11 6.14409e-06 5.01088e-09 3.54486e-08
3343 2 0.002 0.0172917 -0.129897 -0.000109353 3.59622e-13 -4.87468e-12 -2.57564e-11 8.38082e-06 9.49107e-10 1.09313e-08
3342 2 0.002 0.0172969 -0.133918 -6.07453e-06 -7.19732e-13 -3.81568e-12 3.12769e-11 7.36119e-06 4.95692e-10 8.61671e-09
3420 2 0.002 0.02077 -0.139955 -3.66286e-05 -1.00352e-11 -5.0919e-12 3.2911e-11 6.5234e-06 3.55237e-10 7.76024e-09
3736 2 0.002 0.0346175 -0.12794 -0.00082296 -1.96446e-12 -1.65553e-12 8.35469e-12 3.5448e-06 1.10027e-09 3.41186e-08
3814 2 0.002 0.0380728 -0.125949 -0.000752785 -4.22253e-12 2.56557e-13 2.01006e-11 3.34881e-06 1.72977e-09 2.78612e-08
3968 2 0.002 0.0450075 -0.125975 -0.000371284 -4.19544e-12 2.1257e-12 1.20667e-11 0.00747306 1.72638e-09 9.39541e-09
3735 2 0.002 0.0346305 -0.131956 -0.000364448 -8.9069e-13 -4.07682e-12 -3.6379e-12 2.44501e-06 1.43459e-09 3.29789e-08
3891 2 0.002 0.0415372 -0.127977 -0.00033847 -2.76531e-12 -6.26339e-13 -8.53414e-12 3.10922e-06 1.71159e-09 2.34679e-08
3813 2 0.002 0.0380813 -0.12997 -0.000331511 -1.03004e-12 -3.80282e-12 -1.21889e-11 2.57062e-06 1.26902e-09 3.58679e-08
3967 2 0.002 0.0450057 -0.129992 -0.000101894 -2.85619e-12 3.90186e-13 -1.11568e-11 8.1036e-06 1.71405e-09 1.16895e-08
4341 2 0.002 0.0624146 -0.132057 -0.000782104 -9.40787e-12 -5.95936e-12 -1.68059e-11 3.03638e-06 5.90693e-08 2.73633e-08
4342 2 0.002 0.0624464 -0.128087 -0.00119201 -8.87096e-12 -7.38409e-13 1.81589e-12 6.00363e-06 5.28492e-08 1.14795e-07
4268 2 0.002 0.0589344 -0.130029 -0.000795183 -8.56294e-12 -8.64183e-13 -1.81573e-11 2.72649e-06 1.30884e-08 1.60711e-08
4194 2 0.002 0.055452 -0.128007 -0.000619654 -5.84204e-12 3.1643e-12 4.96244e-12 3.68848e-06 2.24163e-09 1.21365e-08
4267 2 0.002 0.0589114 -0.134002 -0.000347604 -4.84554e-12 -1.07979e-12 -3.32878e-12 1.45823e-06 7.76134e-09 6.38123e-09
4269 2 0.002 0.0589483 -0.126032 -0.000846221 -5.97032e-12 1.89887e-12 1.351e-11 3.6154e-06 4.86717e-09 3.56824e-08
4192 2 0.002 0.0554299 -0.135992 -0.000129071 -2.27141e-12 2.59371e-13 8.65967e-13 1.71645e-06 1.9265e-09 2.30585e-09
4119 2 0.002 0.05197 -0.125992 -0.000458537 -5.57116e-12 3.92946e-12 -6.96217e-12 6.88832e-06 1.38765e-09 8.65347e-09
4193 2 0.002 0.0554387 -0.132 -0.000425654 -4.25052e-12 2.55211e-12 1.59807e-11 2.80565e-06 2.38854e-09 7.95952e-09
4043 2 0.002 0.0484837 -0.127987 -0.000292851 -4.15788e-12 3.24319e-12 7.22948e-12 0.00681022 1.17649e-09 7.14071e-09
4118 2 0.002 0.0519611 -0.129995 -0.000350928 -4.92202e-12 2.77589e-12 -5.62836e-12 6.43332e-06 1.06111e-09 8.07365e-09
4117 2 0.002 0.0519546 -0.133995 -0.000145574 -2.94323e-12 7.59116e-13 -1.58046e-11 2.76912e-06 1.03541e-09 6.00148e-09
4042 2 0.002 0.0484787 -0.131995 -7.13875e-05 -1.91056e-12 2.37246e-12 8.48971e-12 6.84364e-06 1.84587e-09 8.32958e-09
76 1 0.015 0.066733 -0.131648 -0.00306019 -2.50953e-09 -1.57891e-09 -1.35625e-10 -7.57801e-06 0 1.87339e-06
4414 2 0.002 0.0659655 -0.130225 -0.00152513 -1.63132e-11 -8.85024e-12 -2.5661e-12 4.70467e-05 1.67597e-07 2.04878e-06
4415 2 0.002 0.0658894 -0.126097 -0.00112915 -6.79467e-12 -1.0726e-12 -2.3625e-11 6.17525e-06 5.35733e-08 1.42165e-07
4486 2 0.002 0.0693191 -0.128065 -0.000729055 -1.58739e-11 -1.48462e-12 3.83794e-11 4.12566e-06 5.76145e-08 3.36481e-08
4557 2 0.002 0.0727557 -0.12601 -0.00022758 -2.81247e-12 -1.20573e-12 -3.5249e-12 6.74079e-07 6.53503e-09 9.68714e-09
1479 2 0.002 -0.0658112 -0.122009 -0.000461103 -1.4566e-12 1.20096e-11 7.1804e-13 3.32266e-06 3.55126e-09 1.30481e-08
1407 2 0.002 -0.069281 -0.124002 -0.00034423 -2.90886e-13 7.41706e-12 -7.19107e-12 3.58508e-06 4.97023e-09 2.48613e-09
1408 2 0.002 -0.0692599 -0.119995 -9.88956e-05 -2.62445e-12 1.05436e-11 6.26292e-13 4.55272e-06 1.26383e-09 3.31545e-09
1480 2 0.002 -0.0657848 -0.117997 -0.000128186 -3.73489e-12 1.49933e-11 -1.2495e-12 5.8829e-06 8.84195e-10 6.31913e-09
1337 2 0.002 -0.0727338 -0.121991 -3.71036e-05 -8.03592e-13 5.47287e-12 4.39408e-13 3.05299e-06 1.30017e-09 1.40742e-09
1267 2 0.002 -0.0762058 -0.123993 1.82339e-05 4.95797e-13 1.54157e-12 1.76716e-12 2.34877e-06 6.36314e-10 1.01401e-09
1626 2 0.002 -0.0588531 -0.11798 -0.000647876 -5.31589e-14 1.45761e-11 4.27432e-12 3.03365e-06 2.31434e-09 6.68252e-09
1851 2 0.002 -0.0484386 -0.119986 -0.00134886 4.46134e-12 -1.84886e-12 -1.48182e-11 7.71769e-06 5.10317e-09 9.42902e-09
1552 2 0.002 -0.062334 -0.119992 -0.000518965 -1.71028e-12 1.51498e-11 2.99046e-12 5.7852e-06 2.094e-09 6.52729e-09
1776 2 0.002 -0.0519092 -0.117975 -0.00127281 5.14189e-12 5.80837e-12 9.47123e-12 7.73913e-06 5.32758e-09 1.19739e-08
1778 2 0.002 -0.0518863 -0.109982 -0.00106127 7.61684e-12 3.02178e-12 2.63358e-12 6.51195e-06 4.85775e-09 4.76399e-08
1777 2 0.002 -0.0518998 -0.113972 -0.00131445 5.13547e-12 4.77409e-12 -6.81388e-12 5.20006e-06 6.85909e-09 2.37673e-08
1852 2 0.002 -0.0484313 -0.115987 -0.00176408 6.27855e-12 -1.62141e-12 -7.96925e-12 1.20162e-05 1.82836e-08 2.72401e-08
1853 2 0.002 -0.048432 -0.111984 -0.00187659 8.44207e-12 -1.08263e-12 -1.82181e-12 1.67403e-05 4.02931e-08 6.21468e-08
1700 2 0.002 -0.0553902 -0.119978 -0.000954524 7.39559e-13 1.09366e-11 -6.8539e-12 3.00062e-06 2.98415e-09 7.56206e-09
1775 2 0.002 -0.051921 -0.121981 -0.00105646 1.90122e-12 5.64136e-12 -6.25219e-13 5.85443e-06 2.16127e-09 6.34048e-09
1850 2 0.002 -0.0484534 -0.123983 -0.000924319 2.569e-12 3.418e-13 1.34718e-12 5.6976e-06 1.56703e-09 5.38503e-09
1701 2 0.002 -0.0553739 -0.115972 -0.000903538 2.49052e-12 1.07202e-11 5.64179e-13 7.38879e-06 3.40434e-09 1.09004e-08
1702 2 0.002 -0.0553547 -0.111978 -0.000651405 3.76571e-12 9.28551e-12 1.71814e-13 9.42505e-06 2.17411e-09 2.12065e-08
1627 2 0.002 -0.0588291 -0.113982 -0.000357875 -1.19996e-12 1.51301e-11 -9.4401e-12 7.30076e-06 1.76164e-09 9.61854e-09
1551 2 0.002 -0.0623606 -0.124006 -0.000698134 -1.23314e-12 1.2702e-11 -5.79103e-12 3.22865e-06 4.11904e-09 1.28456e-08
1625 2 0.002 -0.0588739 -0.121988 -0.000770075 -6.48424e-13 1.35581e-11 3.55106e-12 5.54794e-06 2.32932e-09 7.41488e-09
1699 2 0.002 -0.0554028 -0.123985 -0.000845193 -5.4896e-13 9.77583e-12 -6.57815e-12 2.49609e-06 1.50775e-09 5.1628e-09
1553 2 0.002 -0.0623072 -0.11599 -0.000194767 -3.08143e-12 1.65989e-11 -3.40633e-12 6.24631e-06 1.35225e-09 5.98747e-09
24 1 0.015 -0.0439578 -0.112546 -0.00457316 -1.22312e-10 -2.05649e-10 -3.66912e-12 -5.23378e-06 0 1.22386e-06
1929 2 0.002 -0.0449602 -0.110007 -0.00243171 9.62035e-12 -5.25534e-12 -5.13482e-12 3.31503e-05 5.45839e-08 6.91872e-07
1926 2 0.002 -0.0449727 -0.121988 -0.00105611 4.40739e-12 -2.66574e-12 2.16529e-11 7.4983e-06 4.07895e-09 1.02617e-08
2160 2 0.002 -0.0345619 -0.112076 -0.000676848 3.07336e-12 -3.93503e-12 8.24564e-12 3.58093e-06 6.72195e-09 4.92807e-08
2083 2 0.002 -0.0380018 -0.110079 -0.00151773 9.13691e-12 -5.30901e-12 -9.30233e-12 6.88529e-06 2.16978e-08 5.35345e-08
2081 2 0.002 -0.0380344 -0.118017 -0.00079412 5.80004e-12 -9.57408e-12 8.99359e-12 5.79388e-06 4.41988e-09 4.87835e-08
1927 2 0.002 -0.0449534 -0.118004 -0.00167061 7.52379e-12 -8.10627e-12 -1.17897e-11 1.18821e-05 1.78691e-08 2.62811e-08
1928 2 0.002 -0.0449508 -0.114029 -0.00245205 8.71831e-12 -5.80301e-12 2.94845e-12 2.48522e-05 5.12963e-08 2.97825e-07
2003 2 0.002 -0.0414958 -0.120001 -0.00105938 7.33179e-12 -9.41681e-12 3.806e-13 4.83965e-06 5.78741e-09 2.14119e-08
2004 2 0.002 -0.0414686 -0.116031 -0.00174158 7.90967e-12 -8.2696e-12 3.64259e-12 1.58143e-05 4.016e-08 6.07963e-08
2005 2 0.002 -0.04145 -0.112055 -0.00239049 9.39366e-12 -8.05085e-12 -7.72008e-12 3.03098e-05 5.36441e-08 5.48866e-07
2082 2 0.002 -0.0380061 -0.114054 -0.00135025 6.53892e-12 -7.55785e-12 3.57904e-12 7.9374e-06 1.86105e-08 1.01223e-07
2159 2 0.002 -0.0345936 -0.116034 -0.000259433 4.7556e-12 -8.22026e-12 2.29628e-12 4.02174e-06 1.98205e-09 7.0103e-08
2080 2 0.002 -0.0380623 -0.121992 -0.000274466 5.1363e-12 -1.06711e-11 1.21983e-11 8.17052e-06 2.10494e-09 1.80742e-08
2002 2 0.002 -0.0415227 -0.123987 -0.000524389 7.84667e-12 -1.13613e-11 -1.59046e-11 6.65278e-06 2.49998e-09 8.68749e-09
2238 2 0.002 -0.0311014 -0.110091 -0.000158108 8.87227e-13 1.19061e-12 3.12772e-12 4.15363e-06 4.67691e-09 2.08972e-08
3425 2 0.002 0.0207482 -0.119855 -0.000764257 4.68007e-12 -7.04672e-13 -1.07179e-11 1.50205e-05 5.08189e-09 4.39957e-08
3426 2 0.002 0.0207557 -0.115858 -0.000525261 4.86579e-12 6.62437e-13 9.95656e-13 1.66823e-05 4.09038e-09 6.33702e-08
3503 2 0.002 0.0242027 -0.121861 -0.00142253 5.6553e-12 4.33497e-13 3.0291e-13 1.76618e-05 1.90342e-08 5.91895e-08
3504 2 0.002 0.0242009 -0.117849 -0.00145109 5.53788e-12 2.9443e-12 6.86433e-12 2.20414e-05 3.67183e-08 9.66209e-08
3505 2 0.002 0.0242088 -0.113849 -0.000995292 -1.02246e-12 7.20509e-12 -1.40321e-11 1.06265e-05 1.4251e-08 1.11214e-07
3582 2 0.002 0.0276632 -0.119879 -0.0022915 4.57234e-12 5.8883e-12 6.83851e-12 3.22675e-05 5.17084e-08 6.11787e-07
3583 2 0.002 0.0276643 -0.115849 -0.00200381 7.18715e-13 8.63046e-12 2.22668e-12 3.85589e-05 4.59475e-08 8.92294e-07
3584 2 0.002 0.0276629 -0.11185 -0.0010298 -9.8033e-13 9.74961e-12 -1.66e-11 1.03457e-05 1.39836e-08 1.0897e-07
20 1 0.015 0.0298279 -0.119197 -0.00430364 8.53476e-11 8.24261e-10 4.9924e-11 -5.51484e-06 0 1.56575e-06
3581 2 0.002 0.0276699 -0.123889 -0.00160313 3.73786e-12 1.62313e-12 7.63412e-12 1.53846e-05 2.0859e-08 4.41291e-08
3427 2 0.002 0.0207656 -0.11187 -4.29568e-05 1.03066e-13 2.98162e-12 -7.83651e-12 7.82334e-06 2.77553e-09 5.74862e-08
3424 2 0.002 0.0207497 -0.123866 -0.000726289 6.10755e-12 -2.85564e-12 -5.41017e-12 1.23758e-05 4.00103e-09 2.78028e-08
3345 2 0.002 0.0172924 -0.121869 -0.000164108 8.7569e-12 -3.2511e-12 3.59305e-12 1.16182e-05 1.98022e-09 2.60661e-08
3506 2 0.002 0.0242178 -0.109858 -0.000254781 6.99979e-13 2.8008e-12 7.14592e-12 7.93061e-06 4.55541e-09 5.61682e-08
3663 2 0.002 0.0311287 -0.109864 -0.000619972 3.28119e-13 2.64648e-12 1.80892e-12 1.56254e-05 4.60174e-09 5.7316e-08
3662 2 0.002 0.0311283 -0.113854 -0.0014785 8.58386e-13 7.75555e-12 -8.13795e-12 2.0519e-05 3.52369e-08 8.22811e-08
3660 2 0.002 0.031146 -0.121901 -0.00185279 2.18057e-12 1.07688e-12 -4.74765e-12 1.63083e-05 4.00486e-08 4.87132e-08
3661 2 0.002 0.0311561 -0.117869 -0.00227181 4.62286e-13 5.99662e-12 1.41327e-11 2.9032e-05 5.02704e-08 4.18297e-07
3737 2 0.002 0.0346107 -0.123922 -0.00127835 1.52314e-12 -2.86366e-12 -2.34503e-11 6.08003e-06 4.66037e-09 3.51764e-08
3816 2 0.002 0.0380666 -0.117906 -0.00105025 -2.28199e-12 5.57245e-13 3.7244e-12 1.11843e-05 4.5587e-09 1.96103e-08
3739 2 0.002 0.0345975 -0.115877 -0.00141985 -2.48423e-13 1.89623e-12 3.05676e-12 1.62502e-05 1.7222e-08 4.58242e-08
3738 2 0.002 0.0346101 -0.119897 -0.00158666 2.96265e-12 1.58168e-13 -2.21068e-11 1.46051e-05 1.95473e-08 3.92853e-08
3740 2 0.002 0.0345917 -0.111877 -0.000820296 8.54481e-13 2.13037e-12 -4.01874e-12 1.39136e-05 4.61641e-09 3.42075e-08
3818 2 0.002 0.038064 -0.109903 -0.000243386 6.05857e-13 -1.45161e-12 3.63737e-12 1.07948e-05 1.57544e-09 1.90984e-08
3817 2 0.002 0.0380607 -0.1139 -0.000740337 3.27366e-13 1.36908e-12 -8.01571e-12 1.1746e-05 3.29444e-09 2.30951e-08
3894 2 0.002 0.0415348 -0.115922 -0.000543523 -2.12381e-12 4.49901e-13 -1.4069e-13 9.39174e-06 1.52618e-09 1.38253e-08
3895 2 0.002 0.0415362 -0.111923 -0.000188201 -9.28522e-13 -1.00984e-12 6.71434e-12 4.9206e-06 1.14507e-09 1.60689e-08
3892 2 0.002 0.0415353 -0.123954 -0.000621535 -2.22089e-12 -7.05252e-13 -2.04687e-11 4.32284e-06 2.2471e-09 1.56288e-08
3893 2 0.002 0.0415355 -0.119934 -0.000704162 -3.44152e-12 4.49138e-13 1.59313e-12 8.76825e-06 2.06427e-09 1.28371e-08
3815 2 0.002 0.0380689 -0.121927 -0.00103123 -4.55258e-12 5.30375e-13 1.80358e-11 1.05314e-05 3.67178e-09 2.31825e-08
3969 2 0.002 0.0450099 -0.121958 -0.00047677 -4.56873e-12 2.14555e-12 6.57149e-12 7.40056e-06 1.86085e-09 9.06536e-09
3970 2 0.002 0.0450108 -0.117945 -0.000376195 -2.23522e-12 2.58925e-12 -1.67441e-11 3.9392e-06 1.35784e-09 9.79261e-09
3971 2 0.002 0.0450112 -0.113942 -8.6377e-05 -2.01242e-12 7.28614e-13 3.37398e-12 4.30237e-06 8.02479e-10 1.16343e-08
4343 2 0.002 0.0624166 -0.124049 -0.000891057 -4.91198e-12 -4.82604e-14 1.00718e-11 4.02023e-06 1.27391e-08 3.49542e-08
4195 2 0.002 0.0554592 -0.124004 -0.000570134 -5.69085e-12 4.38924e-12 -2.05963e-12 8.20022e-06 2.12028e-09 1.5804e-08
4270 2 0.002 0.0589365 -0.122018 -0.00057756 -6.03033e-12 6.13913e-12 -2.99097e-11 4.60831e-06 2.20256e-09 1.89829e-08
4344 2 0.002 0.0624004 -0.120026 -0.000436925 -2.81128e-12 -3.36914e-12 4.44101e-11 3.14832e-06 1.55445e-09 2.0737e-08
4271 2 0.002 0.058926 -0.118009 -0.0001698 -3.37558e-12 6.92518e-12 -2.65113e-11 4.14518e-06 4.57369e-10 1.36994e-08
4196 2 0.002 0.0554543 -0.119997 -0.000311987 -3.81143e-12 2.86617e-12 2.55495e-11 3.92709e-06 1.16132e-09 1.24138e-08
4044 2 0.002 0.0484889 -0.123977 -0.000396983 -4.91261e-12 3.38372e-12 -8.58431e-12 0.0068156 1.60469e-09 7.5128e-09
4120 2 0.002 0.051974 -0.121984 -0.000385578 -4.89773e-12 4.48431e-12 3.30874e-12 7.19765e-06 1.56578e-09 9.85928e-09
4045 2 0.002 0.0484909 -0.119966 -0.000316998 -4.21424e-12 3.07448e-12 4.85054e-12 7.12232e-06 1.51998e-09 8.51422e-09
4046 2 0.002 0.0484896 -0.115961 -5.01535e-05 -4.11894e-12 1.177e-12 2.48699e-11 7.68323e-06 1.0013e-09 9.21648e-09
4121 2 0.002 0.0519715 -0.117979 -0.000129065 -3.43343e-12 6.779e-12 -2.45423e-11 7.4153e-06 1.16813e-09 9.64021e-09
4345 2 0.002 0.0623925 -0.116015 2.92083e-05 -1.29778e-12 2.81588e-12 -5.66745e-12 4.07748e-06 4.35317e-10 1.33085e-08
4197 2 0.002 0.0554475 -0.115995 8.2711e-05 -2.73399e-12 3.39678e-12 1.81746e-11 7.72945e-06 5.109e-10 1.07468e-08
4487 2 0.002 0.0693198 -0.124032 -0.000600384 -4.9567e-12 -1.61444e-12 6.31034e-12 2.66418e-06 1.41713e-08 2.61592e-08
4416 2 0.002 0.0658667 -0.122045 -0.000637912 -2.2086e-12 1.87113e-12 -2.46117e-11 3.76561e-06 3.62449e-09 4.62163e-08
4488 2 0.002 0.0693227 -0.120018 -0.000207977 -7.36765e-13 -3.09631e-12 1.85032e-11 2.51599e-06 1.84465e-09 1.86804e-08
4417 2 0.002 0.0658611 -0.118023 -0.00015839 -3.03822e-14 1.15257e-12 -1.21851e-11 2.88523e-06 1.06631e-09 1.92458e-08
4558 2 0.002 0.0727759 -0.122005 -7.98772e-05 2.06629e-12 -1.07198e-12 -4.14953e-12 1.65851e-06 3.17435e-09 1.57899e-08
637 2 0.002 -0.110825 -0.0959878 -0.000132682 -1.48992e-12 3.96458e-13 -2.04363e-12 8.11847e-06 1.18965e-09 1.4963e-08
694 2 0.002 -0.107353 -0.0979847 -0.000220914 -2.97699e-12 6.44558e-13 4.61048e-12 9.44921e-06 1.53417e-09 2.25749e-08
695 2 0.002 -0.107328 -0.0939754 -0.000402685 -2.18524e-12 5.49705e-13 1.12445e-13 4.81227e-06 9.95946e-10 2.25435e-08
816 2 0.002 -0.100351 -0.0939484 -0.000919186 -4.89095e-12 -2.12978e-12 7.14896e-12 1.26041e-05 2.47528e-09 4.17115e-08
754 2 0.002 -0.103854 -0.0959673 -0.000544163 -5.42648e-12 -5.63617e-13 -4.40245e-12 5.35539e-06 1.01821e-09 3.08083e-08
878 2 0.002 -0.0968805 -0.095939 -0.000877092 -9.42515e-12 -4.88596e-12 3.67981e-12 1.23969e-05 3.2506e-09 3.46951e-08
877 2 0.002 -0.0969228 -0.099947 -0.000459586 -1.17802e-11 -3.63191e-12 4.81515e-12 3.27046e-06 1.48681e-09 2.27709e-08
753 2 0.002 -0.103887 -0.0999797 -0.000259363 -4.92103e-12 3.24086e-13 5.16245e-12 5.19017e-06 1.77983e-09 2.99673e-08
814 2 0.002 -0.100424 -0.101967 -0.00025114 -7.09315e-12 -7.49552e-13 8.82867e-12 3.1347e-06 1.49266e-09 2.63543e-08
815 2 0.002 -0.100387 -0.0979562 -0.000573869 -8.93178e-12 -2.89006e-12 -1.10846e-11 3.56904e-06 1.12489e-09 3.18622e-08
813 2 0.002 -0.100444 -0.105978 -7.28954e-05 -4.66486e-12 -1.56039e-12 -2.94322e-12 3.22732e-06 9.66407e-10 1.00969e-08
876 2 0.002 -0.0969565 -0.103959 -0.000169611 -1.04947e-11 -3.68503e-12 -5.58923e-12 3.68851e-06 1.18245e-09 1.20847e-08
875 2 0.002 -0.0969841 -0.107977 -2.90165e-05 -6.46374e-12 -2.00295e-12 6.48789e-12 1.78696e-06 1.513e-09 8.32e-09
1072 2 0.002 -0.0864434 -0.0939404 -0.000251675 -8.79176e-12 -1.36242e-11 -7.94388e-12 1.3762e-05 3.36483e-09 3.33343e-08
941 2 0.002 -0.0934221 -0.0979341 -0.000578235 -1.31595e-11 -8.11481e-12 -4.15066e-12 1.14291e-05 2.90109e-09 2.4387e-08
942 2 0.002 -0.0933706 -0.0939253 -0.00110867 -8.93102e-12 -7.95068e-12 6.45348e-12 1.59832e-05 9.59368e-09 4.70441e-08
1006 2 0.002 -0.0899267 -0.0959319 -0.000537959 -1.29335e-11 -1.05741e-11 1.41988e-12 1.29432e-05 3.31915e-09 2.57568e-08
940 2 0.002 -0.0934648 -0.101948 -0.00019994 -1.4991e-11 -6.08911e-12 2.84205e-12 4.3366e-06 1.54021e-09 1.39794e-08
1005 2 0.002 -0.0899761 -0.0999455 -0.000128968 -1.61896e-11 -9.98486e-12 -7.58292e-12 5.04678e-06 1.41368e-09 1.6549e-08
1779 2 0.002 -0.0518651 -0.106013 -0.000517389 7.2613e-12 1.32573e-12 1.5046e-12 6.90514e-06 2.08834e-09 5.79911e-08
1855 2 0.002 -0.0483979 -0.10403 -0.000701909 8.00855e-12 -2.33559e-12 -2.6844e-12 4.65483e-06 4.74784e-09 4.63932e-08
1854 2 0.002 -0.0484203 -0.107995 -0.00147 7.41928e-12 -2.30657e-13 -1.19648e-11 9.0455e-06 1.88857e-08 1.00318e-07
1703 2 0.002 -0.0553331 -0.108004 -0.000192687 4.87495e-12 6.28943e-12 5.58973e-12 5.75625e-06 1.19952e-09 3.91968e-08
1930 2 0.002 -0.0449507 -0.10603 -0.00148606 9.88376e-12 -5.68253e-12 2.26024e-12 8.62524e-06 2.01964e-08 7.20261e-08
2006 2 0.002 -0.0414769 -0.10805 -0.00182915 9.96227e-12 -5.64234e-12 -5.35541e-12 1.65102e-05 4.29728e-08 4.07741e-08
2084 2 0.002 -0.0379994 -0.106079 -0.00126568 6.9505e-12 -2.91455e-12 5.30101e-12 8.84737e-06 9.79714e-09 1.39443e-08
2162 2 0.002 -0.0345091 -0.104099 -0.000934602 4.80119e-12 3.08794e-12 -3.27689e-12 2.8838e-06 7.46465e-09 7.27356e-09
2007 2 0.002 -0.0414679 -0.10406 -0.00116087 8.30669e-12 -5.54746e-12 1.0315e-11 1.10839e-05 6.9902e-09 2.16713e-08
2161 2 0.002 -0.0345379 -0.108098 -0.000893816 3.44746e-12 -4.31503e-13 9.60094e-12 2.57044e-06 8.69988e-09 1.93974e-08
2164 2 0.002 -0.0344379 -0.0960985 -0.000618363 6.50026e-13 7.62739e-12 -9.56219e-12 4.16259e-06 2.83506e-09 1.41193e-08
1931 2 0.002 -0.0449204 -0.102057 -0.000653588 7.81656e-12 -4.5768e-12 3.23523e-12 6.25908e-06 3.47212e-09 3.36178e-08
2085 2 0.002 -0.0379763 -0.102079 -0.000900286 5.89456e-12 4.79396e-14 4.71652e-12 7.3668e-06 4.99922e-09 8.57569e-09
2163 2 0.002 -0.0344758 -0.100096 -0.000836357 3.82715e-12 5.50282e-12 8.11202e-12 3.1627e-06 5.22182e-09 7.90986e-09
2008 2 0.002 -0.0414329 -0.100074 -0.000524005 4.60808e-12 1.29047e-12 -2.1729e-11 4.83078e-06 2.60524e-09 1.55748e-08
2086 2 0.002 -0.0379366 -0.0980855 -0.000483042 3.17726e-12 2.79905e-12 -5.22899e-12 4.00662e-06 2.70012e-09 1.00873e-08
2087 2 0.002 -0.0378884 -0.094099 -3.14657e-05 1.52273e-12 1.23787e-12 1.25578e-11 9.44526e-06 1.63181e-09 1.49589e-08
2009 2 0.002 -0.0413823 -0.0960919 8.55344e-05 3.71331e-12 -2.98222e-12 1.3462e-11 9.93608e-06 1.24926e-09 1.4962e-08
92 1 0.015 -0.0194908 -0.0961402 -0.00443862 3.84438e-10 -3.15397e-10 3.32078e-11 -7.59804e-06 0 1.62391e-06
2475 2 0.002 -0.0206378 -0.104175 -0.000256825 -5.76607e-12 9.13893e-12 2.07958e-12 1.35348e-05 4.74892e-09 5.57141e-08
2240 2 0.002 -0.0310079 -0.10212 -0.000891212 2.15267e-12 8.72684e-12 2.33092e-12 5.92978e-06 7.56269e-09 6.82194e-09
2319 2 0.002 -0.0275043 -0.100157 -0.00115471 4.20111e-13 1.21286e-11 -3.05675e-12 9.20609e-06 9.4571e-09 1.54841e-08
2318 2 0.002 -0.0275527 -0.104142 -0.000609432 -8.54418e-13 9.96114e-12 -6.33855e-13 7.39036e-06 6.24614e-09 8.67358e-09
2396 2 0.002 -0.0241245 -0.10614 -1.9915e-05 -4.51757e-12 7.49044e-12 -7.83729e-12 1.04746e-05 3.29233e-09 2.62348e-08
2556 2 0.002 -0.0170964 -0.0982364 -0.00136681 -7.68753e-13 4.88746e-12 1.3485e-12 1.98663e-05 4.928e-08 7.34338e-08
2477 2 0.002 -0.0204922 -0.0963321 -0.00258098 3.03244e-12 7.47067e-12 -5.82078e-12 3.96197e-05 7.65066e-08 8.72639e-07
2398 2 0.002 -0.0240051 -0.0982223 -0.0017342 7.16675e-13 1.19149e-11 -5.11201e-12 1.71367e-05 3.75381e-08 5.61391e-08
2476 2 0.002 -0.0205603 -0.100247 -0.00136307 -1.66688e-12 8.11205e-12 -4.74666e-12 1.78229e-05 3.23317e-08 7.97467e-08
2241 2 0.002 -0.0309736 -0.0981191 -0.00101795 2.23463e-12 1.0678e-11 4.73018e-12 3.96722e-06 5.57834e-09 1.36415e-08
2320 2 0.002 -0.0274792 -0.0961602 -0.00145809 2.06665e-12 1.30036e-11 1.1946e-12 1.2646e-05 9.02069e-09 3.29672e-08
2397 2 0.002 -0.0240545 -0.10219 -0.000923176 -2.29181e-12 1.25549e-11 3.49221e-12 1.13146e-05 1.0291e-08 2.73079e-08
2555 2 0.002 -0.0171668 -0.102183 -0.000374195 -3.92375e-12 3.25545e-12 -5.42112e-12 1.49262e-05 7.72902e-09 5.26094e-08
2242 2 0.002 -0.0309471 -0.0941208 -0.00095713 3.65602e-13 1.08702e-11 -4.58804e-12 5.44432e-06 2.32317e-09 2.88967e-08
2399 2 0.002 -0.0239964 -0.0942241 -0.00209447 3.37581e-12 1.19496e-11 -4.41693e-13 2.21482e-05 5.43263e-08 1.12398e-07
2557 2 0.002 -0.0170533 -0.0942536 -0.00207935 8.29512e-13 5.79458e-12 6.11839e-12 3.03066e-05 5.37044e-08 3.38334e-07
2239 2 0.002 -0.0310514 -0.106115 -0.000588007 2.25588e-12 4.34144e-12 -1.01218e-11 3.03193e-06 7.12434e-09 7.40795e-09
2317 2 0.002 -0.0276173 -0.108109 5.98778e-05 -4.05375e-12 8.37853e-12 1.16125e-11 8.38046e-06 4.11138e-09 1.14452e-08
2635 2 0.002 -0.0137247 -0.100142 -0.000172094 -3.09721e-12 -6.06087e-13 2.34634e-12 1.48895e-05 4.77626e-09 4.01498e-08
2636 2 0.002 -0.0136867 -0.0961565 -0.000832889 -1.03204e-12 7.90121e-13 7.25658e-12 1.76437e-05 1.42198e-08 4.96365e-08
2716 2 0.002 -0.0102998 -0.0940729 -0.000102014 4.24381e-12 -5.74227e-12 -1.06582e-11 1.48681e-05 2.70508e-09 3.3601e-08
3585 2 0.002 0.027679 -0.107862 -0.000131214 2.23474e-13 2.2867e-12 6.17687e-12 5.13137e-06 3.15217e-09 6.56388e-08
3741 2 0.002 0.0345974 -0.107886 -0.00013055 1.01316e-12 -2.15347e-12 8.14042e-12 1.18962e-05 1.56756e-09 2.8041e-08
4967 2 0.002 0.0936041 -0.0939735 -0.000445059 -1.0618e-12 4.59801e-12 -2.35656e-11 3.71699e-06 1.43149e-10 8.91589e-09
4966 2 0.002 0.0935927 -0.0979811 -0.00017235 1.54813e-12 7.25001e-12 2.7258e-11 2.06115e-06 4.87953e-10 9.96975e-09
4902 2 0.002 0.0901424 -0.0959702 3.42881e-05 1.93508e-12 6.07398e-12 2.59395e-11 3.39517e-06 1.78356e-10 1.02668e-08
5091 2 0.002 0.100496 -0.101996 -0.000353576 -3.47719e-12 -2.23142e-12 -1.00858e-11 8.95544e-07 5.49195e-09 6.01412e-09
5153 2 0.002 0.103994 -0.100043 -0.000743027 -5.697e-12 -5.24701e-12 -9.63795e-13 3.81891e-06 3.49009e-08 2.02782e-08
5213 2 0.002 0.107532 -0.0981658 -0.00137239 -6.54575e-12 -1.90143e-11 -1.02484e-11 2.44373e-05 1.00502e-07 5.07273e-07
5030 2 0.002 0.0970634 -0.0959952 -0.000671389 -2.59991e-12 3.12824e-12 -1.10505e-11 7.32341e-06 9.75698e-10 9.62448e-09
5092 2 0.002 0.100528 -0.0980208 -0.000831958 -2.94837e-12 4.43975e-13 1.51514e-11 7.15238e-06 7.21234e-09 1.15263e-08
5093 2 0.002 0.100544 -0.0940324 -0.00116407 -5.76726e-13 -8.57679e-13 2.81039e-12 1.0165e-05 3.56079e-09 2.23043e-08
5154 2 0.002 0.10403 -0.0960891 -0.00135918 -6.44572e-12 -1.36543e-11 -3.94418e-11 1.36974e-05 3.97609e-08 4.18164e-08
5214 2 0.002 0.107526 -0.0941442 -0.00170273 2.84924e-12 -2.72875e-11 -8.01605e-12 2.5064e-05 4.05055e-08 5.00605e-07
5029 2 0.002 0.097043 -0.0999904 -0.000351598 -2.25307e-12 2.77691e-12 1.89169e-12 1.61353e-06 2.42764e-09 8.92228e-09
68 1 0.015 0.109078 -0.0977197 -0.00300032 -1.84197e-09 -2.47821e-09 1.57268e-10 -6.04174e-06 0 9.95377e-07
5090 2 0.002 0.100466 -0.105998 -7.20408e-05 -8.86068e-14 1.79983e-13 3.35874e-12 -9.19741e-08 2.45166e-09 1.57247e-09
5028 2 0.002 0.0970208 -0.10399 -4.89156e-05 -7.43011e-13 2.29506e-12 4.2232e-12 5.63388e-07 1.58657e-09 5.53558e-09
5271 2 0.002 0.110946 -0.096087 -0.000954406 7.88641e-11 -5.25987e-11 -3.60663e-10 6.44106e-06 6.84822e-08 1.54852e-07
638 2 0.002 -0.110811 -0.0919861 -0.000197295 1.30543e-13 6.24988e-13 2.72399e-12 8.90926e-06 1.37073e-09 1.99414e-08
639 2 0.002 -0.110802 -0.0879823 -0.000135036 3.71862e-12 -2.3444e-13 4.72764e-12 4.70132e-06 1.32338e-09 2.0893e-08
582 2 0.002 -0.114291 -0.0899937 -1.65853e-05 7.20802e-13 3.53665e-13 -3.72908e-12 6.50802e-06 1.61045e-09 8.53924e-09
881 2 0.002 -0.0968016 -0.0839252 -0.0013429 1.04733e-11 -6.78106e-12 -2.34544e-13 1.89682e-05 2.85913e-08 7.31751e-08
880 2 0.002 -0.0968117 -0.0879212 -0.00160674 3.06284e-12 -6.74432e-12 -4.81625e-12 1.97264e-05 4.0459e-08 8.2386e-08
696 2 0.002 -0.107315 -0.0899715 -0.000465875 1.46615e-12 6.67461e-14 -1.80132e-12 3.46798e-06 8.33154e-10 2.54979e-08
697 2 0.002 -0.107305 -0.0859746 -0.000366446 6.49107e-12 -8.57111e-13 -1.67627e-12 2.65511e-06 6.89012e-10 2.74866e-08