ITEM: TIMESTEP
250000
ITEM: NUMBER OF ATOMS
5843
ITEM: BOX BOUNDS ff ff ff
-2.5000000000000000e-01 2.5000000000000000e-01
-2.5000000000000000e-01 2.5000000000000000e-01
-1.0000000000000001e-01 1.0000000000000001e-01
ITEM: ATOMS id type radius x y z fx fy fz v_pressure c_bendingE c_stretchingE
98 1 0.015 -0.0134901 -0.149042 -0.00140557 2.49637e-07 5.26218e-09 6.94702e-09 -6.24963e-06 0 3.4297e-06
2624 2 0.002 -0.0138853 -0.144055 -0.000358043 -1.10506e-09 1.2006e-09 -6.70712e-09 7.13264e-06 3.22344e-08 2.06927e-06
2703 2 0.002 -0.0104416 -0.146058 -0.000498431 1.30349e-10 1.1223e-09 6.85174e-10 5.5357e-06 4.06025e-08 1.44116e-06
2783 2 0.002 -0.00698212 -0.143995 -1.42654e-05 -1.99745e-09 2.38705e-10 6.60674e-09 5.16044e-06 1.62585e-08 2.60398e-08
3655 2 0.002 0.0311726 -0.141979 -6.13063e-05 1.27994e-09 1.28997e-09 6.02754e-09 5.28471e-06 1.54662e-09 5.95271e-09
3498 2 0.002 0.0242397 -0.14197 -7.29789e-05 2.60456e-09 5.09517e-10 2.47218e-08 6.18645e-06 4.96755e-10 8.63342e-09
3576 2 0.002 0.0277082 -0.143981 -4.86177e-05 1.19019e-09 1.64961e-10 -6.98842e-09 2.51381e-06 4.34477e-10 5.19492e-09
3419 2 0.002 0.0207788 -0.143979 1.0864e-05 1.22752e-09 -1.10361e-09 -3.11964e-08 5.70702e-06 4.26421e-10 6.44577e-09
1477 2 0.002 -0.0658403 -0.130026 -0.00048079 2.71406e-09 5.62939e-09 8.47691e-08 7.85485e-07 1.12516e-08 4.0676e-08
1478 2 0.002 -0.0658497 -0.126045 -0.000692606 2.4532e-09 -5.36229e-09 -1.16782e-09 3.95513e-06 6.82589e-09 3.80733e-07
1406 2 0.002 -0.069297 -0.128016 -0.000358647 -4.86919e-09 -3.8562e-09 -4.60706e-08 1.21024e-07 7.90207e-09 1.11662e-08
56 1 0.015 -0.0677759 -0.129685 -0.00108316 -5.62765e-08 1.44252e-07 1.54791e-08 -2.76694e-06 0 4.10195e-07
1336 2 0.002 -0.0727451 -0.125997 -0.000124197 1.19988e-09 -3.34876e-09 2.04832e-08 1.68585e-06 1.74174e-09 4.99265e-10
1849 2 0.002 -0.0484702 -0.127982 -0.00055133 -2.39534e-09 2.31019e-09 -2.32806e-10 2.1898e-06 7.65001e-10 3.29751e-09
1774 2 0.002 -0.0519335 -0.125983 -0.000766246 -5.68947e-10 -7.44622e-11 9.21817e-09 2.37367e-06 7.05733e-10 4.06923e-09
1848 2 0.002 -0.0484855 -0.131984 -0.000245617 -1.28432e-09 1.18429e-09 -4.6323e-09 3.22002e-06 7.24714e-10 2.03496e-09
1550 2 0.002 -0.0623624 -0.12801 -0.00062125 3.16589e-09 -7.2263e-09 -3.30774e-08 4.33561e-06 5.14514e-09 4.55088e-09
1624 2 0.002 -0.058884 -0.125994 -0.000709748 3.18863e-09 -5.86061e-09 2.35458e-08 4.68776e-06 1.67191e-09 4.72244e-09
1623 2 0.002 -0.0588865 -0.129994 -0.000474362 2.04178e-09 -3.48477e-09 2.11037e-08 3.69029e-06 7.88672e-10 2.54889e-09
1622 2 0.002 -0.0588878 -0.133993 -0.000178493 1.2681e-09 -1.5408e-09 1.57474e-08 3.00614e-06 1.04038e-09 1.76847e-09
1772 2 0.002 -0.0519553 -0.133989 -0.000192128 1.25438e-10 -1.70854e-10 8.48827e-09 1.55775e-06 6.00001e-10 2.29008e-09
1697 2 0.002 -0.0554182 -0.131988 -0.00033548 1.18306e-09 -3.39914e-09 -9.40728e-09 1.67021e-06 3.21198e-10 2.08511e-09
1698 2 0.002 -0.0554117 -0.127987 -0.000617656 1.46145e-09 -5.16972e-09 -1.7687e-08 4.17134e-06 4.53112e-10 3.26469e-09
1773 2 0.002 -0.0519456 -0.129984 -0.000462082 -1.064e-10 -4.82157e-10 6.36912e-09 1.91288e-06 2.70555e-10 2.74083e-09
1549 2 0.002 -0.0623573 -0.132001 -0.000291928 1.07895e-09 -5.6445e-09 -3.43671e-08 3.11283e-06 4.10233e-09 1.78103e-09
1696 2 0.002 -0.0554229 -0.135992 -9.74722e-05 5.9913e-10 -1.76369e-09 -8.65079e-09 1.2994e-06 6.17344e-10 1.33612e-09
1847 2 0.002 -0.0484959 -0.135992 -4.30223e-05 -7.37015e-10 5.14794e-10 -3.72694e-09 2.27253e-06 6.91602e-10 1.23422e-09
1925 2 0.002 -0.0449945 -0.125983 -0.000589378 -5.45393e-09 5.96583e-09 3.19553e-09 2.69221e-06 1.72127e-09 5.12183e-09
2001 2 0.002 -0.0415463 -0.127986 -0.000131133 -5.13895e-09 6.45688e-09 -1.3397e-08 2.5257e-06 1.48195e-09 4.78286e-09
1924 2 0.002 -0.0450144 -0.129984 -0.000230988 -4.07476e-09 4.82016e-09 3.1938e-09 3.99815e-06 1.03002e-09 2.98588e-09
1923 2 0.002 -0.0450314 -0.13399 2.66684e-05 -2.65471e-09 2.77669e-09 -4.32668e-09 2.63709e-06 1.59088e-09 1.81607e-09
3502 2 0.002 0.0242105 -0.125881 -0.00105687 -1.4915e-09 2.65302e-09 1.15039e-08 1.17704e-05 5.1572e-09 2.19245e-08
3344 2 0.002 0.0172902 -0.12588 -0.000183458 -2.78543e-09 -4.60068e-09 -1.30052e-08 9.92807e-06 1.80382e-09 1.71237e-08
3422 2 0.002 0.0207591 -0.131906 -0.000331446 -2.45671e-10 -3.94577e-09 -2.38586e-08 4.01095e-06 8.12662e-10 1.04054e-08
3423 2 0.002 0.020753 -0.127885 -0.000540115 1.46749e-10 -1.58814e-09 8.21445e-09 9.62778e-06 1.7225e-09 1.45686e-08
3501 2 0.002 0.0242214 -0.1299 -0.000693282 -1.10409e-10 5.95714e-10 -3.01668e-09 9.14442e-06 1.67882e-09 1.43361e-08
3579 2 0.002 0.0276952 -0.13192 -0.000628334 7.66584e-10 3.26405e-09 2.22057e-09 4.3276e-06 1.80892e-09 1.58234e-08
3580 2 0.002 0.0276842 -0.127903 -0.00104797 -1.03861e-09 5.54395e-09 1.44132e-08 1.08914e-05 3.80993e-09 2.47333e-08
3499 2 0.002 0.0242337 -0.137945 -0.000203393 3.0463e-09 -1.51254e-10 5.60993e-09 6.69225e-06 5.15623e-10 8.63021e-09
3578 2 0.002 0.0277003 -0.135939 -0.000332725 2.10839e-09 2.31065e-09 1.75785e-09 7.0119e-06 9.4306e-10 9.57586e-09
3421 2 0.002 0.0207651 -0.135929 -0.000155426 4.48923e-09 -1.27505e-09 3.56706e-08 7.01328e-06 4.71034e-10 8.70176e-09
3500 2 0.002 0.0242288 -0.133921 -0.000406108 1.52571e-09 -3.98823e-10 -9.61632e-09 3.79096e-06 9.13286e-10 1.04638e-08
3656 2 0.002 0.0311711 -0.137958 -0.00014908 1.36899e-09 2.89736e-09 1.09109e-08 6.30383e-06 1.64833e-09 7.69499e-09
3657 2 0.002 0.0311704 -0.133943 -0.000389326 1.48844e-09 3.20507e-09 -8.36634e-09 2.81003e-06 1.47322e-09 1.87924e-08
3658 2 0.002 0.0311595 -0.129928 -0.000782091 -6.25556e-10 5.58646e-09 4.04346e-09 3.2984e-06 1.87293e-09 2.64425e-08
3577 2 0.002 0.0277036 -0.13996 -0.000152028 2.51161e-09 6.38135e-10 -1.50529e-08 2.97051e-06 6.43966e-10 6.93541e-09
3659 2 0.002 0.0311484 -0.125914 -0.00129025 -2.6449e-09 4.08789e-09 -1.59415e-08 6.14403e-06 5.01077e-09 3.54481e-08
3343 2 0.002 0.0172917 -0.129897 -0.000109363 2.20267e-09 -4.99872e-09 1.01585e-08 8.38082e-06 9.49038e-10 1.09313e-08
3342 2 0.002 0.0172969 -0.133918 -6.0863e-06 2.91266e-09 -5.05948e-09 1.50424e-08 7.3612e-06 4.95752e-10 8.6167e-09
3420 2 0.002 0.02077 -0.139955 -3.66192e-05 1.28059e-09 -2.67486e-09 -2.90156e-08 6.52341e-06 3.55308e-10 7.76037e-09
3736 2 0.002 0.0346175 -0.12794 -0.00082297 -2.49913e-09 7.52871e-09 9.68221e-09 3.54477e-06 1.10023e-09 3.41179e-08
3814 2 0.002 0.0380728 -0.125949 -0.00075279 -1.29681e-09 5.29384e-09 -4.85243e-09 3.34878e-06 1.72975e-09 2.78606e-08
3968 2 0.002 0.0450075 -0.125975 -0.000371289 3.86021e-10 1.82644e-09 -4.04121e-09 0.00747297 1.72629e-09 9.39519e-09
3735 2 0.002 0.0346305 -0.131956 -0.000364451 2.04284e-10 4.68398e-09 -3.55126e-09 2.44499e-06 1.43456e-09 3.29783e-08
3891 2 0.002 0.0415372 -0.127977 -0.000338477 -9.39364e-10 3.80032e-09 3.90208e-09 3.10919e-06 1.71159e-09 2.34675e-08
3813 2 0.002 0.0380813 -0.12997 -0.000331517 -1.1564e-09 5.24096e-09 1.68169e-09 2.5706e-06 1.26913e-09 3.58671e-08
3967 2 0.002 0.0450057 -0.129992 -0.0001019 -1.74827e-10 2.40835e-09 4.11516e-09 8.10351e-06 1.71408e-09 1.16892e-08
4341 2 0.002 0.0624146 -0.132057 -0.000782108 2.72378e-09 1.57942e-09 6.3747e-09 3.03639e-06 5.90699e-08 2.73626e-08
4342 2 0.002 0.0624464 -0.128087 -0.00119201 4.32186e-09 1.13643e-10 3.4879e-09 6.00366e-06 5.28495e-08 1.14796e-07
4268 2 0.002 0.0589344 -0.130029 -0.000795185 2.96411e-09 -2.55448e-10 9.84102e-10 2.7265e-06 1.30884e-08 1.6071e-08
4194 2 0.002 0.055452 -0.128007 -0.000619659 3.36071e-09 -9.83092e-10 3.25553e-09 3.68848e-06 2.24165e-09 1.21364e-08
4267 2 0.002 0.0589114 -0.134002 -0.000347606 1.33858e-09 5.64047e-10 3.58543e-09 1.45823e-06 7.76136e-09 6.38104e-09
4269 2 0.002 0.0589483 -0.126032 -0.000846223 4.44821e-09 -1.07274e-09 -3.89351e-09 3.61541e-06 4.86704e-09 3.56828e-08
4192 2 0.002 0.0554299 -0.135992 -0.00012907 4.61566e-10 -1.193e-10 -2.80929e-09 1.71644e-06 1.92649e-09 2.30581e-09
4119 2 0.002 0.05197 -0.125992 -0.000458542 3.06091e-09 -1.12271e-09 1.35846e-09 6.8883e-06 1.38757e-09 8.65332e-09
4193 2 0.002 0.0554387 -0.132 -0.000425654 1.1574e-09 -8.28016e-10 -7.08317e-09 2.80565e-06 2.38859e-09 7.95935e-09
4043 2 0.002 0.0484837 -0.127987 -0.000292856 1.11747e-09 4.48657e-10 4.14018e-10 0.00681017 1.17651e-09 7.14057e-09
4118 2 0.002 0.0519611 -0.129995 -0.000350931 1.47394e-09 -3.47222e-10 -2.97893e-10 6.43329e-06 1.06105e-09 8.07347e-09
4117 2 0.002 0.0519546 -0.133995 -0.00014558 7.85948e-10 6.03625e-10 1.18102e-08 2.76909e-06 1.03541e-09 6.00136e-09
4042 2 0.002 0.0484787 -0.131995 -7.13883e-05 -1.83019e-10 5.62361e-10 -4.89441e-09 6.84359e-06 1.84594e-09 8.32947e-09
76 1 0.015 0.066733 -0.131648 -0.00306019 5.86694e-07 3.83022e-07 9.22742e-08 -7.57788e-06 0 1.8734e-06
4414 2 0.002 0.0659655 -0.130225 -0.00152513 4.59309e-09 2.56967e-09 3.42608e-09 4.70469e-05 1.67598e-07 2.04879e-06
4415 2 0.002 0.0658894 -0.126097 -0.00112916 4.40126e-09 -3.11209e-10 1.50996e-08 6.17531e-06 5.35734e-08 1.42166e-07
4486 2 0.002 0.0693191 -0.128065 -0.00072905 6.97224e-09 2.6277e-10 -1.50534e-08 4.12572e-06 5.76147e-08 3.36487e-08
4557 2 0.002 0.0727557 -0.12601 -0.000227583 2.18411e-09 7.32061e-10 4.22081e-09 6.74117e-07 6.53499e-09 9.68727e-09
1479 2 0.002 -0.0658112 -0.122009 -0.000461111 4.63902e-09 -1.1117e-08 9.61693e-09 3.32282e-06 3.55086e-09 1.30492e-08
1407 2 0.002 -0.069281 -0.124002 -0.000344239 3.34852e-09 -8.42213e-09 1.6416e-08 3.58534e-06 4.97005e-09 2.48655e-09
1408 2 0.002 -0.0692599 -0.119995 -9.88926e-05 3.38079e-09 -1.02294e-08 -1.6944e-08 4.55294e-06 1.26402e-09 3.31582e-09
1480 2 0.002 -0.0657848 -0.117997 -0.000128194 5.46438e-09 -1.40234e-08 4.34708e-09 5.88314e-06 8.84165e-10 6.31963e-09
1337 2 0.002 -0.0727338 -0.121991 -3.7104e-05 2.27359e-09 -7.08234e-09 -4.68536e-09 3.05321e-06 1.30021e-09 1.40763e-09
1267 2 0.002 -0.0762058 -0.123993 1.82371e-05 4.61268e-10 -2.91923e-09 -1.00304e-08 2.34898e-06 6.3626e-10 1.01421e-09
1626 2 0.002 -0.0588531 -0.11798 -0.000647878 1.4489e-09 -8.67611e-09 -1.05878e-08 3.03377e-06 2.31439e-09 6.68289e-09
1851 2 0.002 -0.0484386 -0.119986 -0.00134888 -3.74391e-09 6.28991e-09 2.18679e-08 7.71787e-06 5.10307e-09 9.42931e-09
1552 2 0.002 -0.062334 -0.119992 -0.00051897 4.01288e-09 -1.15999e-08 -7.3573e-10 5.78545e-06 2.09411e-09 6.52762e-09
1776 2 0.002 -0.0519092 -0.117975 -0.00127282 -3.31275e-09 2.42464e-10 -6.20045e-10 7.73934e-06 5.32766e-09 1.19744e-08
1778 2 0.002 -0.0518863 -0.109982 -0.00106128 -3.48712e-09 9.29308e-10 9.34777e-09 6.51204e-06 4.8578e-09 4.76419e-08
1777 2 0.002 -0.0518998 -0.113972 -0.00131446 -6.07861e-09 1.07192e-09 -1.01645e-08 5.20016e-06 6.85917e-09 2.37686e-08
1852 2 0.002 -0.0484313 -0.115987 -0.00176409 -6.03862e-09 4.96605e-09 3.44841e-09 1.20164e-05 1.82835e-08 2.72408e-08
1853 2 0.002 -0.048432 -0.111984 -0.0018766 -6.92259e-09 4.89208e-09 2.90573e-09 1.67406e-05 4.02931e-08 6.21485e-08
1700 2 0.002 -0.0553902 -0.119978 -0.000954533 8.84088e-10 -4.89914e-09 7.62885e-09 3.00073e-06 2.98414e-09 7.56236e-09
1775 2 0.002 -0.051921 -0.121981 -0.00105646 -1.76706e-09 -1.01212e-09 -9.93765e-09 5.8546e-06 2.16134e-09 6.34064e-09
1850 2 0.002 -0.0484534 -0.123983 -0.000924326 -3.42121e-09 3.4335e-09 9.7017e-10 5.69775e-06 1.56695e-09 5.38513e-09
1701 2 0.002 -0.0553739 -0.115972 -0.000903547 -5.49299e-10 -4.5797e-09 2.97662e-09 7.38904e-06 3.40433e-09 1.09012e-08
1702 2 0.002 -0.0553547 -0.111978 -0.000651415 -1.54426e-09 -3.50666e-09 1.54002e-09 9.42523e-06 2.17406e-09 2.12079e-08
1627 2 0.002 -0.0588291 -0.113982 -0.00035789 3.83247e-09 -1.04951e-08 1.76548e-08 7.30097e-06 1.76162e-09 9.61931e-09
1551 2 0.002 -0.0623606 -0.124006 -0.000698136 3.69524e-09 -9.22113e-09 -3.64027e-09 3.22877e-06 4.11922e-09 1.2846e-08
1625 2 0.002 -0.0588739 -0.121988 -0.000770081 2.87913e-09 -8.14017e-09 1.2622e-09 5.5482e-06 2.32925e-09 7.4151e-09
1699 2 0.002 -0.0554028 -0.123985 -0.000845197 1.09632e-09 -4.83349e-09 -2.11322e-09 2.4962e-06 1.50779e-09 5.16299e-09
1553 2 0.002 -0.0623072 -0.11599 -0.000194773 4.34028e-09 -1.27026e-08 -1.48582e-09 6.24651e-06 1.35218e-09 5.98782e-09
24 1 0.015 -0.0439578 -0.112546 -0.00457317 -1.14674e-07 2.34328e-07 3.87632e-08 -5.23371e-06 0 1.22387e-06
1929 2 0.002 -0.0449602 -0.110007 -0.00243173 -8.38729e-09 6.55823e-09 7.05077e-09 3.31506e-05 5.45841e-08 6.91881e-07
1926 2 0.002 -0.0449727 -0.121988 -0.00105611 -4.65847e-09 3.08979e-09 -2.75217e-08 7.49842e-06 4.07907e-09 1.02619e-08
2160 2 0.002 -0.0345619 -0.112076 -0.000676857 -2.50873e-09 -4.00709e-10 -1.05978e-08 3.58095e-06 6.72201e-09 4.92794e-08
2083 2 0.002 -0.0380018 -0.110079 -0.00151775 -8.50019e-09 1.86295e-09 1.15417e-08 6.88535e-06 2.16979e-08 5.35342e-08
2081 2 0.002 -0.0380344 -0.118017 -0.000794129 -7.13019e-09 7.0015e-09 -3.03421e-09 5.79391e-06 4.41988e-09 4.87831e-08
1927 2 0.002 -0.0449534 -0.118004 -0.00167062 -7.25898e-09 8.2325e-09 4.49088e-09 1.18823e-05 1.78691e-08 2.62815e-08
1928 2 0.002 -0.0449508 -0.114029 -0.00245206 -8.23074e-09 7.39576e-09 4.39471e-10 2.48523e-05 5.12962e-08 2.97825e-07
2003 2 0.002 -0.0414958 -0.120001 -0.00105939 -7.96543e-09 8.27956e-09 5.76624e-10 4.83968e-06 5.78739e-09 2.14121e-08
2004 2 0.002 -0.0414686 -0.116031 -0.00174159 -8.14159e-09 7.59223e-09 -2.24859e-10 1.58144e-05 4.016e-08 6.07965e-08
2005 2 0.002 -0.04145 -0.112055 -0.0023905 -8.75055e-09 6.61632e-09 4.53285e-09 3.03099e-05 5.36441e-08 5.48866e-07
2082 2 0.002 -0.0380061 -0.114054 -0.00135026 -5.66842e-09 3.95535e-09 -6.87127e-09 7.93744e-06 1.86106e-08 1.01222e-07
2159 2 0.002 -0.0345936 -0.116034 -0.000259444 -5.09514e-09 3.85148e-09 -1.75786e-09 4.02175e-06 1.98194e-09 7.01015e-08
2080 2 0.002 -0.0380623 -0.121992 -0.000274468 -5.0541e-09 6.79824e-09 -1.64394e-08 8.17057e-06 2.105e-09 1.80742e-08
2002 2 0.002 -0.0415227 -0.123987 -0.000524407 -1.01355e-08 1.15285e-08 2.6573e-08 6.65285e-06 2.49981e-09 8.68762e-09
2238 2 0.002 -0.0311014 -0.110091 -0.000158117 4.09358e-10 -5.18263e-09 -1.38228e-08 4.15366e-06 4.67696e-09 2.08963e-08
3425 2 0.002 0.0207482 -0.119855 -0.000764267 -5.93022e-09 -2.33028e-10 -2.11762e-09 1.50205e-05 5.08192e-09 4.3996e-08
3426 2 0.002 0.0207557 -0.115858 -0.000525273 -7.31247e-09 1.04093e-09 -8.37702e-10 1.66823e-05 4.0904e-09 6.3371e-08
3503 2 0.002 0.0242027 -0.121861 -0.00142253 -6.20469e-09 1.53329e-09 -7.89273e-09 1.76617e-05 1.9034e-08 5.91892e-08
3504 2 0.002 0.0242009 -0.117849 -0.00145111 -7.68227e-09 2.75749e-09 9.38745e-10 2.20414e-05 3.67185e-08 9.66215e-08
3505 2 0.002 0.0242089 -0.113849 -0.000995307 -7.29485e-09 3.03507e-09 5.36811e-09 1.06265e-05 1.42511e-08 1.11216e-07
3582 2 0.002 0.0276632 -0.119879 -0.00229151 -6.35992e-09 6.13962e-09 2.26763e-09 3.22675e-05 5.1709e-08 6.11786e-07
3583 2 0.002 0.0276643 -0.115849 -0.00200383 -6.65494e-09 4.80559e-09 1.46254e-08 3.85592e-05 4.59481e-08 8.92305e-07
3584 2 0.002 0.0276629 -0.11185 -0.00102982 -6.61374e-09 5.95625e-09 -3.12547e-09 1.03457e-05 1.39839e-08 1.08972e-07
20 1 0.015 0.0298279 -0.119198 -0.00430365 -8.86778e-08 2.9264e-07 4.50512e-08 -5.5148e-06 0 1.56576e-06
3581 2 0.002 0.0276699 -0.123889 -0.00160313 -5.67391e-09 1.42606e-09 -2.23896e-08 1.53844e-05 2.08589e-08 4.41284e-08
3427 2 0.002 0.0207656 -0.11187 -4.29715e-05 -6.80107e-09 1.67311e-09 1.39523e-09 7.82336e-06 2.7755e-09 5.74871e-08
3424 2 0.002 0.0207497 -0.123866 -0.000726301 -2.32008e-09 -7.83704e-10 6.72506e-09 1.23758e-05 4.00105e-09 2.78029e-08
3345 2 0.002 0.0172924 -0.121869 -0.000164118 -3.63003e-09 -3.33609e-09 -1.63878e-09 1.16183e-05 1.98023e-09 2.60665e-08
3506 2 0.002 0.0242178 -0.109858 -0.00025479 -8.52181e-09 5.56578e-09 -1.38375e-08 7.93062e-06 4.55539e-09 5.6169e-08
3663 2 0.002 0.0311287 -0.109864 -0.000619982 -3.50296e-09 5.53204e-09 -9.80509e-09 1.56254e-05 4.60165e-09 5.73172e-08
3662 2 0.002 0.0311283 -0.113854 -0.00147852 -4.78414e-09 5.64896e-09 4.69102e-09 2.05191e-05 3.52375e-08 8.22826e-08
3660 2 0.002 0.031146 -0.121901 -0.0018528 -5.95228e-09 6.881e-09 8.33058e-09 1.63083e-05 4.00488e-08 4.87132e-08
3661 2 0.002 0.0311561 -0.117869 -0.00227183 -6.70306e-09 6.28292e-09 1.65908e-08 2.90322e-05 5.02711e-08 4.18299e-07
3737 2 0.002 0.0346107 -0.123922 -0.00127836 -3.06703e-09 6.22463e-09 -3.07577e-09 6.07997e-06 4.66039e-09 3.51759e-08
3816 2 0.002 0.0380666 -0.117906 -0.00105026 -3.70057e-10 4.17613e-09 -8.37847e-09 1.11842e-05 4.55862e-09 1.96099e-08
3739 2 0.002 0.0345975 -0.115877 -0.00141986 -2.02777e-09 6.17316e-09 -4.13476e-09 1.62501e-05 1.72224e-08 4.58242e-08
3738 2 0.002 0.0346101 -0.119897 -0.00158667 -4.4595e-09 6.37702e-09 6.99255e-09 1.46051e-05 1.95477e-08 3.92851e-08
3740 2 0.002 0.0345917 -0.111877 -0.000820304 -8.50863e-10 5.8412e-09 -1.39839e-08 1.39136e-05 4.61633e-09 3.42079e-08
3818 2 0.002 0.038064 -0.109903 -0.000243405 -3.16183e-10 -1.41662e-09 1.26131e-08 1.07948e-05 1.57546e-09 1.90986e-08
3817 2 0.002 0.0380607 -0.1139 -0.000740349 -4.49094e-10 2.33575e-09 -5.03699e-10 1.17459e-05 3.29442e-09 2.3095e-08
3894 2 0.002 0.0415348 -0.115922 -0.000543539 -2.1251e-10 1.00974e-10 1.23237e-08 9.39171e-06 1.52619e-09 1.38251e-08
3895 2 0.002 0.0415362 -0.111923 -0.000188213 2.2045e-09 -6.29971e-10 -2.33195e-09 4.92059e-06 1.14512e-09 1.60688e-08
3892 2 0.002 0.0415353 -0.123954 -0.000621549 -1.82021e-09 4.25623e-09 1.82691e-08 4.32282e-06 2.24714e-09 1.56285e-08
3893 2 0.002 0.0415355 -0.119934 -0.000704174 -9.05495e-10 2.38686e-09 9.29095e-09 8.76822e-06 2.06431e-09 1.28369e-08
3815 2 0.002 0.0380689 -0.121927 -0.00103124 -3.29252e-10 4.50536e-09 -1.48496e-08 1.05313e-05 3.67175e-09 2.3182e-08
3969 2 0.002 0.0450099 -0.121958 -0.000476771 2.06558e-09 8.1842e-10 -1.65801e-08 7.40049e-06 1.86083e-09 9.06513e-09
3970 2 0.002 0.0450108 -0.117945 -0.000376204 2.4001e-09 -8.01703e-10 -3.93759e-11 3.93917e-06 1.3578e-09 9.79232e-09
3971 2 0.002 0.0450112 -0.113942 -8.63862e-05 3.59072e-09 -1.93952e-09 -4.65808e-09 4.30236e-06 8.02523e-10 1.16341e-08
4343 2 0.002 0.0624166 -0.124049 -0.000891056 4.90569e-09 6.44688e-10 -1.19256e-08 4.02025e-06 1.27394e-08 3.49548e-08
4195 2 0.002 0.0554592 -0.124004 -0.000570138 4.62819e-09 -1.87891e-09 -3.24423e-09 8.20023e-06 2.1204e-09 1.5804e-08
4270 2 0.002 0.0589365 -0.122018 -0.000577573 6.70105e-09 -3.4952e-09 1.68915e-08 4.60834e-06 2.20246e-09 1.89834e-08
4344 2 0.002 0.0624004 -0.120026 -0.000436919 6.14231e-09 2.42827e-09 -2.99981e-08 3.14834e-06 1.55455e-09 2.07372e-08
4271 2 0.002 0.058926 -0.118009 -0.000169816 6.97332e-09 -5.02353e-09 2.09243e-08 4.14521e-06 4.57342e-10 1.36997e-08
4196 2 0.002 0.0554543 -0.119997 -0.000311988 5.77263e-09 -2.13163e-09 -1.37858e-08 3.9271e-06 1.16126e-09 1.24139e-08
4044 2 0.002 0.0484889 -0.123977 -0.00039699 2.45757e-09 -6.0005e-10 3.8079e-09 0.00681558 1.60479e-09 7.51267e-09
4120 2 0.002 0.051974 -0.121984 -0.000385583 4.32413e-09 -2.21195e-09 -2.62018e-09 7.19764e-06 1.56575e-09 9.8592e-09
4045 2 0.002 0.0484909 -0.119966 -0.000317011 3.27507e-09 -2.33057e-09 1.30491e-08 7.1223e-06 1.51997e-09 8.51405e-09
4046 2 0.002 0.0484896 -0.115961 -5.01574e-05 5.19893e-09 -2.13447e-09 -1.39409e-08 7.68322e-06 1.00129e-09 9.21638e-09
4121 2 0.002 0.0519715 -0.117979 -0.000129078 5.41263e-09 -4.64472e-09 1.19002e-08 7.41532e-06 1.16818e-09 9.64022e-09
4345 2 0.002 0.0623925 -0.116015 2.91994e-05 6.11972e-09 -1.70165e-09 4.73182e-09 4.07752e-06 4.35381e-10 1.33087e-08
4197 2 0.002 0.0554475 -0.115995 8.27076e-05 6.48806e-09 -2.93002e-09 -1.29847e-08 7.72947e-06 5.10902e-10 1.07469e-08
4487 2 0.002 0.0693198 -0.124032 -0.000600384 5.45994e-09 1.15809e-09 -7.03202e-09 2.66421e-06 1.41713e-08 2.61592e-08
4416 2 0.002 0.0658667 -0.122045 -0.000637923 4.73431e-09 -1.55907e-09 1.7198e-08 3.76564e-06 3.62446e-09 4.62167e-08
4488 2 0.002 0.0693227 -0.120018 -0.000207977 4.80463e-09 2.24718e-09 -9.60799e-09 2.51602e-06 1.84474e-09 1.86804e-08
4417 2 0.002 0.0658611 -0.118023 -0.000158399 5.07262e-09 -6.03502e-10 9.42918e-09 2.88526e-06 1.0662e-09 1.92458e-08
4558 2 0.002 0.0727759 -0.122005 -7.98821e-05 1.76056e-09 1.08037e-09 6.7211e-09 1.65855e-06 3.17427e-09 1.57902e-08
637 2 0.002 -0.110825 -0.0959878 -0.000132684 6.59797e-10 1.80952e-09 4.96781e-09 8.11833e-06 1.18967e-09 1.49626e-08
694 2 0.002 -0.107353 -0.0979847 -0.000220916 9.80161e-10 2.63659e-09 1.8664e-09 9.44896e-06 1.53416e-09 2.25739e-08
695 2 0.002 -0.107328 -0.0939754 -0.000402683 -1.1752e-09 4.62077e-09 -1.08099e-08 4.81218e-06 9.95931e-10 2.25431e-08
816 2 0.002 -0.100351 -0.0939484 -0.00091919 2.54609e-10 9.20778e-09 -1.1442e-09 1.26038e-05 2.47524e-09 4.17108e-08
754 2 0.002 -0.103854 -0.0959673 -0.000544166 7.30079e-10 6.05671e-09 2.12082e-10 5.35526e-06 1.01822e-09 3.08074e-08
878 2 0.002 -0.0968806 -0.0959391 -0.000877094 2.72138e-09 9.47194e-09 -7.20423e-09 1.23966e-05 3.25056e-09 3.46941e-08
877 2 0.002 -0.0969228 -0.099947 -0.000459589 4.43366e-09 8.13326e-09 -2.31795e-11 3.27034e-06 1.48682e-09 2.27697e-08
753 2 0.002 -0.103887 -0.0999797 -0.000259363 1.40032e-09 2.94031e-09 -3.92533e-09 5.19e-06 1.77984e-09 2.99658e-08
814 2 0.002 -0.100424 -0.101967 -0.000251139 2.48332e-09 4.29439e-09 -5.97389e-09 3.13457e-06 1.49268e-09 2.63525e-08
815 2 0.002 -0.100387 -0.0979563 -0.000573875 2.74473e-09 7.93546e-09 8.26885e-09 3.56893e-06 1.12492e-09 3.1861e-08
813 2 0.002 -0.100444 -0.105978 -7.28982e-05 2.42092e-09 2.75474e-09 5.31771e-09 3.22714e-06 9.66436e-10 1.00959e-08
876 2 0.002 -0.0969565 -0.103959 -0.000169613 4.5088e-09 5.78469e-09 -1.50418e-09 3.68832e-06 1.18243e-09 1.20836e-08
875 2 0.002 -0.0969841 -0.107977 -2.90173e-05 2.8801e-09 3.02304e-09 -2.93608e-10 1.78684e-06 1.51302e-09 8.319e-09
1072 2 0.002 -0.0864434 -0.0939404 -0.000251684 5.45172e-09 8.5861e-09 3.0073e-09 1.37618e-05 3.36487e-09 3.33327e-08
941 2 0.002 -0.0934221 -0.0979341 -0.00057824 5.50729e-09 1.00132e-08 -1.53142e-09 1.14288e-05 2.90106e-09 2.4386e-08
942 2 0.002 -0.0933706 -0.0939253 -0.00110867 2.78463e-09 1.14015e-08 -3.25388e-09 1.59829e-05 9.59365e-09 4.70432e-08
1006 2 0.002 -0.0899267 -0.0959319 -0.000537965 5.95518e-09 1.02003e-08 -7.09741e-11 1.29429e-05 3.31913e-09 2.57557e-08
940 2 0.002 -0.0934648 -0.101948 -0.000199945 6.33105e-09 8.3974e-09 3.45268e-09 4.33642e-06 1.5402e-09 1.39784e-08
1005 2 0.002 -0.0899761 -0.0999455 -0.000128974 7.96067e-09 8.7198e-09 1.05026e-09 5.04663e-06 1.41371e-09 1.65481e-08
1779 2 0.002 -0.0518651 -0.106013 -0.0005174 -5.75992e-09 4.2829e-09 -5.57342e-09 6.90521e-06 2.08842e-09 5.79932e-08
1855 2 0.002 -0.0483979 -0.10403 -0.000701924 -5.44292e-09 5.19408e-09 1.64218e-09 4.65487e-06 4.74779e-09 4.63943e-08
1854 2 0.002 -0.0484203 -0.107995 -0.00147001 -6.02326e-09 4.38674e-09 8.58724e-09 9.04561e-06 1.88857e-08 1.00321e-07
1703 2 0.002 -0.0553331 -0.108004 -0.000192698 -2.16446e-09 -1.33202e-09 -1.54847e-09 5.75634e-06 1.19953e-09 3.91989e-08
1930 2 0.002 -0.0449507 -0.10603 -0.00148607 -7.49996e-09 6.68522e-09 -3.37044e-09 8.62534e-06 2.01965e-08 7.20275e-08
2006 2 0.002 -0.0414769 -0.108051 -0.00182917 -8.36054e-09 3.36e-09 8.69869e-09 1.65104e-05 4.2973e-08 4.07752e-08
2084 2 0.002 -0.0379994 -0.106079 -0.00126569 -4.55574e-09 2.92694e-10 -1.08775e-08 8.84743e-06 9.7973e-09 1.39443e-08
2162 2 0.002 -0.0345091 -0.104099 -0.000934621 -3.55063e-09 -5.53206e-09 5.43279e-09 2.88385e-06 7.46459e-09 7.27356e-09
2007 2 0.002 -0.0414679 -0.10406 -0.00116088 -5.3661e-09 3.26745e-09 -9.31477e-09 1.1084e-05 6.9901e-09 2.1672e-08
2161 2 0.002 -0.0345379 -0.108098 -0.000893831 -4.00282e-09 -2.66449e-09 -9.70432e-10 2.57044e-06 8.69981e-09 1.93966e-08
2164 2 0.002 -0.0344379 -0.0960985 -0.000618386 8.25521e-10 -9.02385e-09 7.51276e-09 4.16263e-06 2.83501e-09 1.41197e-08
1931 2 0.002 -0.0449204 -0.102057 -0.000653602 -4.58305e-09 4.53614e-09 -4.35633e-09 6.25914e-06 3.47208e-09 3.36186e-08
2085 2 0.002 -0.0379763 -0.102079 -0.000900299 -3.27493e-09 -2.66662e-09 -9.15255e-09 7.36695e-06 4.99927e-09 8.57608e-09
2163 2 0.002 -0.0344758 -0.100096 -0.00083637 -2.26983e-09 -7.11283e-09 -1.35743e-08 3.16276e-06 5.2219e-09 7.9101e-09
2008 2 0.002 -0.0414329 -0.100074 -0.000524032 -9.55609e-10 -4.14851e-09 2.3566e-08 4.83084e-06 2.60514e-09 1.55753e-08
2086 2 0.002 -0.0379366 -0.0980855 -0.000483067 6.32708e-10 -7.26857e-09 1.77199e-08 4.00666e-06 2.70006e-09 1.00875e-08
2087 2 0.002 -0.0378884 -0.094099 -3.14765e-05 2.80559e-10 -3.35748e-09 -2.34626e-08 9.4454e-06 1.63183e-09 1.49594e-08
2009 2 0.002 -0.0413823 -0.0960919 8.55236e-05 -9.17972e-10 8.03994e-10 -2.07694e-08 9.9362e-06 1.24933e-09 1.49624e-08
92 1 0.015 -0.0194908 -0.0961402 -0.00443864 -5.13151e-07 5.81507e-07 -5.07532e-09 -7.59792e-06 0 1.62395e-06
2475 2 0.002 -0.0206378 -0.104175 -0.000256842 1.42649e-09 -5.06796e-09 -4.60179e-09 1.35348e-05 4.74902e-09 5.5714e-08
2240 2 0.002 -0.0310079 -0.10212 -0.000891231 -2.35382e-09 -8.73736e-09 4.04809e-09 5.92987e-06 7.56266e-09 6.82203e-09
2319 2 0.002 -0.0275043 -0.100157 -0.00115473 -3.05496e-09 -1.03619e-08 -1.02044e-08 9.20614e-06 9.45719e-09 1.54843e-08
2318 2 0.002 -0.0275527 -0.104142 -0.000609451 -8.00695e-10 -7.56937e-09 4.89559e-09 7.39036e-06 6.24611e-09 8.67368e-09
2396 2 0.002 -0.0241245 -0.10614 -1.99302e-05 2.0922e-09 -7.38596e-09 -4.65153e-09 1.04746e-05 3.29233e-09 2.62352e-08
2556 2 0.002 -0.0170964 -0.0982364 -0.00136683 -3.64267e-09 -5.66337e-10 -6.55016e-09 1.98662e-05 4.92804e-08 7.34332e-08
2477 2 0.002 -0.0204922 -0.0963321 -0.00258101 -8.16614e-09 1.61261e-09 8.58826e-09 3.96199e-05 7.65072e-08 8.72646e-07
2398 2 0.002 -0.0240051 -0.0982223 -0.00173422 -3.86356e-09 -5.14237e-09 6.57805e-09 1.71368e-05 3.75384e-08 5.61398e-08
2476 2 0.002 -0.0205603 -0.100247 -0.00136309 -2.91961e-09 -2.0102e-09 3.2061e-09 1.78228e-05 3.23318e-08 7.97461e-08
2241 2 0.002 -0.0309736 -0.0981191 -0.00101797 -1.64827e-09 -9.9056e-09 -4.68564e-10 3.96729e-06 5.57831e-09 1.36419e-08
2320 2 0.002 -0.0274792 -0.0961602 -0.00145811 -3.80522e-09 -8.79752e-09 -3.39945e-10 1.26461e-05 9.02066e-09 3.29684e-08
2397 2 0.002 -0.0240545 -0.10219 -0.000923199 -1.24389e-09 -4.95964e-09 8.82978e-09 1.13146e-05 1.02911e-08 2.7308e-08
2555 2 0.002 -0.0171668 -0.102183 -0.000374213 -7.61694e-10 -6.60863e-10 -1.73584e-09 1.49262e-05 7.72892e-09 5.2609e-08
2242 2 0.002 -0.0309471 -0.0941207 -0.000957157 1.18281e-09 -9.70757e-09 1.54594e-08 5.44439e-06 2.32309e-09 2.88978e-08
2399 2 0.002 -0.0239964 -0.0942241 -0.00209449 -8.00781e-09 -4.38577e-09 -3.37711e-09 2.21484e-05 5.43271e-08 1.12401e-07
2557 2 0.002 -0.0170533 -0.0942536 -0.00207937 -6.57844e-09 9.46407e-10 -2.96658e-09 3.03067e-05 5.3705e-08 3.38334e-07
2239 2 0.002 -0.0310514 -0.106115 -0.000588027 -2.44449e-09 -5.94647e-09 9.63345e-09 3.03195e-06 7.12442e-09 7.4077e-09
2317 2 0.002 -0.0276173 -0.108109 5.98653e-05 1.72921e-09 -7.70029e-09 -7.91653e-09 8.3805e-06 4.11141e-09 1.14453e-08
2635 2 0.002 -0.0137247 -0.100142 -0.000172115 -3.56284e-09 3.16094e-09 1.4169e-09 1.48894e-05 4.77618e-09 4.01496e-08
2636 2 0.002 -0.0136867 -0.0961565 -0.000832904 -1.31365e-09 -6.85293e-11 -1.8886e-08 1.76436e-05 1.42196e-08 4.96362e-08
2716 2 0.002 -0.0102998 -0.0940729 -0.000102041 -9.09363e-09 3.72816e-09 1.07559e-08 1.48682e-05 2.70498e-09 3.36012e-08
3585 2 0.002 0.027679 -0.107862 -0.000131228 -5.23348e-09 3.20012e-09 -3.96444e-09 5.13138e-06 3.15209e-09 6.56403e-08
3741 2 0.002 0.0345974 -0.107886 -0.000130568 -1.23828e-09 -1.05154e-10 5.91455e-09 1.18962e-05 1.56754e-09 2.80416e-08
4967 2 0.002 0.0936041 -0.0939735 -0.000445071 7.66657e-10 -1.77893e-09 1.45897e-08 3.717e-06 1.43157e-10 8.91591e-09
4966 2 0.002 0.0935927 -0.0979811 -0.000172349 -7.523e-10 -2.71176e-09 -1.71749e-08 2.06114e-06 4.87898e-10 9.96958e-09
4902 2 0.002 0.0901424 -0.0959702 3.42853e-05 -1.8864e-09 -3.99125e-09 -1.09955e-08 3.39517e-06 1.78374e-10 1.0267e-08
5091 2 0.002 0.100496 -0.101996 -0.000353583 2.48423e-09 3.97414e-09 1.48499e-08 8.95504e-07 5.49219e-09 6.01368e-09
5153 2 0.002 0.103994 -0.100043 -0.000743018 2.60407e-09 -6.90348e-10 -2.52801e-08 3.81872e-06 3.4899e-08 2.02777e-08
5213 2 0.002 0.107532 -0.0981658 -0.0013724 1.79793e-09 1.41888e-08 1.36615e-08 2.4437e-05 1.00504e-07 5.07228e-07
5030 2 0.002 0.0970634 -0.0959952 -0.000671396 2.34584e-09 1.14357e-09 6.13739e-09 7.32334e-06 9.75782e-10 9.62416e-09
5092 2 0.002 0.100528 -0.0980208 -0.000831961 3.28475e-09 3.55857e-09 7.5643e-10 7.1522e-06 7.21204e-09 1.15259e-08
5093 2 0.002 0.100544 -0.0940324 -0.00116407 3.53028e-10 4.89336e-09 -9.01272e-09 1.01649e-05 3.56068e-09 2.23046e-08
5154 2 0.002 0.10403 -0.0960891 -0.00135919 2.73876e-09 1.17227e-08 2.38071e-08 1.36974e-05 3.97614e-08 4.18171e-08
5214 2 0.002 0.107526 -0.0941442 -0.00170274 -3.86692e-09 2.08374e-08 1.6579e-08 2.50647e-05 4.05061e-08 5.00632e-07
5029 2 0.002 0.097043 -0.0999904 -0.000351598 1.51165e-09 5.76919e-10 -6.64875e-09 1.61351e-06 2.42778e-09 8.92185e-09
68 1 0.015 0.109078 -0.0977197 -0.00300032 9.33478e-07 1.29121e-06 -8.36526e-08 -6.04161e-06 0 9.95356e-07
5090 2 0.002 0.100466 -0.105998 -7.20408e-05 2.5071e-10 9.23566e-10 -1.28671e-09 -9.19875e-08 2.45162e-09 1.57234e-09
5028 2 0.002 0.0970208 -0.10399 -4.89148e-05 8.18318e-10 3.91432e-10 -6.61169e-09 5.63369e-07 1.58649e-09 5.5353e-09
5271 2 0.002 0.110946 -0.096087 -0.000954503 -5.59387e-08 3.60504e-08 2.47513e-07 6.44223e-06 6.84931e-08 1.54863e-07
638 2 0.002 -0.110811 -0.0919861 -0.000197298 -8.28922e-10 3.62245e-09 3.94182e-09 8.90916e-06 1.37078e-09 1.99413e-08
639 2 0.002 -0.110802 -0.0879823 -0.00013504 -3.33683e-09 5.95803e-09 4.88677e-09 4.7013e-06 1.32342e-09 2.08934e-08
582 2 0.002 -0.114291 -0.0899937 -1.65798e-05 -1.21442e-09 2.33489e-09 -1.52173e-08 6.50798e-06 1.61036e-09 8.53941e-09
881 2 0.002 -0.0968016 -0.0839252 -0.0013429 -7.149e-09 1.07287e-08 1.65182e-09 1.89683e-05 2.85914e-08 7.31749e-08
880 2 0.002 -0.0968117 -0.0879212 -0.00160675 -4.67373e-09 1.17697e-08 -3.19326e-09 1.97263e-05 4.04592e-08 8.23855e-08
696 2 0.002 -0.107315 -0.0899715 -0.000465879 -3.0721e-09 7.22793e-09 2.77563e-09 3.46794e-06 8.33142e-10 2.5498e-08
697 2 0.002 -0.107305 -0.0859746 -0.000366446 -7.42602e-09 9.58789e-09 -9.94952e-09 2.6551e-06 6.89003e-10 2.74868e-08