ITEM: TIMESTEP
10000
ITEM: NUMBER OF ATOMS
112
ITEM: BOX BOUNDS ff ff ff
-2.5000000000000000e-01 2.5000000000000000e-01
-2.5000000000000000e-01 2.5000000000000000e-01
-1.0000000000000001e-01 1.0000000000000001e-01
ITEM: ATOMS id type radius x y z fx fy fz v_pressure c_bendingE c_stretchingE
98 1 0.015 -0.0128972 -0.146977 0 6.26155e-09 8.51155e-10 0 -0.000317907 0 0
51 1 0.015 0.0142613 -0.143782 0 8.40286e-09 -4.57696e-09 0 -0.000200803 0 0
93 1 0.015 0.0417248 -0.141606 0 1.06861e-08 5.46606e-09 0 -0.000386965 0 0
56 1 0.015 -0.0672509 -0.128958 0 1.23229e-09 -1.38065e-09 0 -9.66172e-05 0 0
61 1 0.015 -0.0407532 -0.140114 0 2.57717e-09 -1.27483e-09 0 -0.000121365 0 0
76 1 0.015 0.066047 -0.130243 0 1.14769e-08 6.00947e-09 0 -0.000319583 0 0
9 1 0.015 -0.0919986 -0.114448 0 8.29929e-10 -2.11384e-09 0 -0.000212776 0 0
24 1 0.015 -0.043986 -0.112167 0 -1.804e-09 -5.89998e-10 0 -0.000186698 0 0
103 1 0.015 -0.0185948 -0.121938 0 -1.95585e-09 -2.61356e-10 0 -0.000331239 0 0
20 1 0.015 0.029425 -0.118909 0 -5.66202e-09 -1.6208e-09 0 -0.000283136 0 0
43 1 0.015 0.088629 -0.11566 0 1.07801e-08 7.14557e-09 0 -0.000281659 0 0
88 1 0.015 -0.0684716 -0.100065 0 -2.10499e-09 -6.36785e-10 0 -0.00019321 0 0
92 1 0.015 -0.0202821 -0.0951985 0 -4.0427e-09 1.85948e-10 0 -0.000223343 0 0
47 1 0.015 0.00484042 -0.108037 0 -4.09247e-09 1.08068e-09 0 -0.000221823 0 0
31 1 0.015 0.0544034 -0.105089 0 -5.96704e-09 -1.71992e-09 0 -0.000143487 0 0
68 1 0.015 0.108349 -0.0970175 0 1.02613e-08 7.17276e-09 0 -0.000240947 0 0
37 1 0.015 -0.119707 -0.0837807 0 -3.57765e-09 6.25172e-09 0 -0.000318028 0 0
90 1 0.015 -0.0931308 -0.0870742 0 -4.29873e-09 -2.67951e-09 0 -0.000262342 0 0
33 1 0.015 -0.0452845 -0.0841293 0 -3.97151e-09 -2.15521e-10 0 -0.000202795 0 0
46 1 0.015 0.00328293 -0.0800116 0 -4.90429e-09 6.79587e-10 0 -0.000191251 0 0
45 1 0.015 0.0286266 -0.0919008 0 -5.05751e-09 -6.69033e-10 0 -0.00019457 0 0
53 1 0.015 0.0784012 -0.0893722 0 -5.75013e-09 -5.14078e-10 0 -0.000113155 0 0
96 1 0.015 -0.0701226 -0.0717837 0 -5.16736e-09 -1.05647e-09 0 -0.000197384 0 0
29 1 0.015 -0.0217064 -0.0677703 0 -4.64882e-09 5.09982e-10 0 -0.000212549 0 0
22 1 0.015 0.0262279 -0.0642564 0 -5.52722e-09 -2.7186e-10 0 -0.000194547 0 0
52 1 0.015 0.0520637 -0.0771139 0 -5.44858e-09 -1.18788e-09 0 -0.000162251 0 0
112 1 0.015 0.0993871 -0.0701649 0 -2.93537e-09 -7.50131e-10 0 -0.000240162 0 0
91 1 0.015 0.125736 -0.0755967 0 3.71933e-09 1.30646e-08 0 -0.00032414 0 0
99 1 0.015 -0.134553 -0.0605923 0 -3.43668e-09 5.97293e-09 0 -0.000295764 0 0
28 1 0.015 -0.0953635 -0.0592048 0 -6.07817e-09 -1.77334e-09 0 -0.000161946 0 0
109 1 0.015 -0.0465324 -0.0564708 0 -5.04389e-09 -9.10001e-10 0 -0.000224408 0 0
27 1 0.015 0.00122619 -0.0517622 0 -4.95101e-09 9.48417e-10 0 -0.000197822 0 0
30 1 0.015 0.0485988 -0.0489323 0 -5.86028e-09 -1.57775e-09 0 -0.000199478 0 0
25 1 0.015 0.0742748 -0.0609101 0 -4.56901e-09 -2.13564e-09 0 -0.000241881 0 0
10 1 0.015 0.136114 -0.0508263 0 7.06921e-09 1.23156e-08 0 -0.000288659 0 0
78 1 0.015 -0.142579 -0.032139 0 -1.70738e-09 6.00873e-09 0 -0.000115542 0 0
41 1 0.015 -0.116718 -0.0424836 0 -2.34695e-09 3.83251e-09 0 -0.000391185 0 0
16 1 0.015 -0.0711856 -0.0439861 0 -5.66424e-09 -1.22487e-09 0 -0.000200302 0 0
63 1 0.015 -0.0232361 -0.0397846 0 -4.54745e-09 7.2074e-10 0 -0.000270131 0 0
8 1 0.015 0.0232719 -0.0358024 0 -5.22278e-09 6.17536e-10 0 -0.000180696 0 0
107 1 0.015 0.0714414 -0.0339179 0 -6.6927e-09 -3.27582e-09 0 -0.000269915 0 0
106 1 0.015 0.108539 -0.0435981 0 5.09528e-09 -3.48529e-09 0 -0.000134882 0 0
44 1 0.015 -0.0940564 -0.0293887 0 -2.76882e-09 2.08706e-09 0 -0.000234852 0 0
84 1 0.015 -0.0472854 -0.0290947 0 -5.37493e-09 -2.20018e-09 0 -0.000328482 0 0
110 1 0.015 -0.00212229 -0.0224913 0 -4.89289e-09 2.34195e-09 0 -0.000167974 0 0
75 1 0.015 0.0462348 -0.0208717 0 -4.51225e-09 -9.10693e-10 0 -0.000195648 0 0
87 1 0.015 0.0938744 -0.0195383 0 -3.73623e-09 -1.0089e-08 0 -0.000283681 0 0
1 1 0.015 0.120247 -0.0170046 0 -4.54741e-09 2.29325e-09 0 -0.000301981 0 0
85 1 0.015 0.145064 -0.0255768 0 1.29442e-09 1.43489e-08 0 -0.000380376 0 0
48 1 0.015 -0.145198 -0.00346126 0 -3.11931e-10 6.23188e-09 0 -9.42201e-05 0 0
73 1 0.015 -0.119457 -0.0155909 0 -1.36351e-09 4.00779e-09 0 -0.000192305 0 0
17 1 0.015 -0.0946086 -0.00184589 0 -1.03839e-09 2.34942e-09 0 -0.000196943 0 0
2 1 0.015 -0.0703554 -0.0155025 0 -2.82272e-09 5.94607e-11 0 -0.000231248 0 0
34 1 0.015 -0.0446801 -0.00233758 0 -1.59608e-09 -2.99464e-09 0 -0.000233283 0 0
58 1 0.015 0.0210343 -0.00757112 0 -3.03566e-09 1.29831e-09 0 -0.000207678 0 0
60 1 0.015 0.0694026 -0.00604724 0 -1.81024e-09 -4.26018e-09 0 -0.000214361 0 0
54 1 0.015 -0.119296 0.0114947 0 -1.29643e-10 3.75825e-09 0 -0.000175593 0 0
26 1 0.015 -0.0690445 0.0116607 0 4.32328e-11 -1.1273e-11 0 -0.000207133 0 0
42 1 0.015 -0.0173996 0.00134508 0 -2.98221e-09 4.62512e-09 0 -0.000169035 0 0
95 1 0.015 0.0443112 0.00709878 0 -1.98174e-10 -8.79636e-10 0 -0.000232137 0 0
70 1 0.015 0.0933449 0.00821053 0 8.53087e-10 -9.53799e-09 0 -0.000214947 0 0
18 1 0.015 0.120666 0.0105434 0 -2.88145e-10 3.78813e-09 0 -0.00024965 0 0
23 1 0.015 0.146306 0.0016397 0 1.311e-09 1.26421e-08 0 -0.000274214 0 0
36 1 0.015 -0.143659 0.0248212 0 1.14931e-09 6.22319e-09 0 -0.00019785 0 0
19 1 0.015 -0.092862 0.0253392 0 1.21703e-09 2.02738e-09 0 -0.000215476 0 0
72 1 0.015 -0.0443862 0.0250536 0 1.36119e-09 -2.91702e-09 0 -0.000239132 0 0
5 1 0.015 -0.017867 0.0305327 0 -5.48377e-10 5.24064e-09 0 -0.000169163 0 0
94 1 0.015 0.00636091 0.0158824 0 -2.27249e-09 1.89978e-09 0 -0.000189573 0 0
102 1 0.015 0.0301026 0.0304514 0 -8.33377e-10 -1.40409e-09 0 -0.000222378 0 0
77 1 0.015 0.0677265 0.021427 0 2.8312e-09 -4.38168e-09 0 -0.00025289 0 0
81 1 0.015 0.143177 0.0294093 0 -2.74051e-10 1.03321e-08 0 -0.000150952 0 0
3 1 0.015 -0.11612 0.0385132 0 1.54159e-09 3.08452e-09 0 -0.000298427 0 0
69 1 0.015 -0.0683399 0.0394663 0 2.80752e-09 -6.17685e-12 0 -0.000201946 0 0
101 1 0.015 0.00614844 0.0443545 0 1.12995e-09 1.7582e-09 0 -0.000181883 0 0
80 1 0.015 0.0535776 0.0447363 0 1.25878e-09 -5.20015e-09 0 -0.000259584 0 0
7 1 0.015 0.0907292 0.0355477 0 4.82163e-09 -7.77789e-09 0 -0.00031073 0 0
100 1 0.015 0.116956 0.0371697 0 2.37263e-09 3.69502e-09 0 -0.000340165 0 0
83 1 0.015 -0.13845 0.0521426 0 2.43778e-09 5.89896e-09 0 -0.000356821 0 0
15 1 0.015 -0.0920174 0.0534397 0 3.65901e-09 1.30338e-09 0 -0.000202649 0 0
67 1 0.015 -0.0440594 0.0529801 0 3.73159e-09 -2.05463e-09 0 -0.000220464 0 0
65 1 0.015 -0.0179716 0.0594403 0 2.42191e-09 4.62663e-09 0 -0.000192827 0 0
14 1 0.015 0.0305126 0.0591243 0 3.27516e-09 -1.53468e-09 0 -0.000179012 0 0
11 1 0.015 0.0767829 0.0580672 0 3.3411e-09 -8.27275e-09 0 -0.000359001 0 0
57 1 0.015 0.103733 0.0616223 0 1.55496e-09 -3.13991e-10 0 -0.000192909 0 0
38 1 0.015 0.134878 0.0571021 0 -4.78672e-09 1.03177e-08 0 -0.000230954 0 0
82 1 0.015 -0.115919 0.0666593 0 4.58042e-09 1.81559e-09 0 -0.000273365 0 0
12 1 0.015 -0.0678263 0.0677568 0 4.0746e-09 4.28055e-10 0 -0.000196185 0 0
49 1 0.015 0.00631744 0.0720985 0 4.53124e-09 1.15397e-09 0 -0.000214437 0 0
62 1 0.015 0.0551698 0.0740307 0 5.38806e-09 -5.34283e-09 0 -0.000190769 0 0
105 1 0.015 -0.115151 0.0928863 0 1.4919e-09 1.14787e-09 0 -0.000387812 0 0
104 1 0.015 -0.0910279 0.0816947 0 3.38619e-09 1.40597e-09 0 -0.000204189 0 0
50 1 0.015 -0.0444337 0.0815283 0 4.96504e-09 -8.72567e-10 0 -0.000209583 0 0
4 1 0.015 -0.0183722 0.0881014 0 4.76375e-09 3.0861e-09 0 -0.000184543 0 0
89 1 0.015 0.0313517 0.0873209 0 6.76603e-09 -1.56688e-09 0 -0.000203574 0 0
13 1 0.015 0.0844934 0.0841102 0 -5.83759e-10 -5.1019e-09 0 -0.000206823 0 0
55 1 0.015 0.12186 0.0815128 0 -7.21696e-09 9.15104e-09 0 -0.000305882 0 0
40 1 0.015 -0.0680549 0.0976746 0 3.84593e-09 4.87166e-10 0 -0.000100645 0 0
97 1 0.015 0.00650803 0.0985394 0 6.57549e-09 5.99323e-10 0 -0.000362741 0 0
74 1 0.015 0.0623675 0.101312 0 -8.80003e-10 -3.80311e-09 0 -0.000211083 0 0
64 1 0.015 0.10463 0.102462 0 -8.84461e-09 7.00606e-09 0 -0.000312602 0 0
21 1 0.015 -0.094248 0.110489 0 1.20204e-09 2.08635e-10 0 -0.000181828 0 0
32 1 0.015 -0.042461 0.109913 0 4.03029e-09 -2.49134e-10 0 -0.000150574 0 0
6 1 0.015 -0.0151693 0.116851 0 3.51338e-09 8.18882e-10 0 -0.000138721 0 0
86 1 0.015 0.0127197 0.123266 0 4.03117e-10 1.46845e-09 0 -0.000365626 0 0
66 1 0.015 0.0383153 0.1143 0 -1.4825e-10 3.15727e-10 0 -0.000224889 0 0
71 1 0.015 0.0835068 0.119572 0 -7.95645e-09 5.4189e-09 0 -0.00026078 0 0
111 1 0.015 -0.0720162 0.126175 0 -5.8719e-10 5.66716e-12 0 -0.000247693 0 0
108 1 0.015 -0.0475989 0.13773 0 -1.76952e-09 -7.73034e-10 0 -0.000284212 0 0
59 1 0.015 0.059463 0.132874 0 -5.72447e-09 4.29107e-09 0 -0.000213741 0 0
39 1 0.015 -0.0214909 0.144162 0 -2.99163e-09 -5.07895e-10 0 -0.000297283 0 0
35 1 0.015 0.00526897 0.147607 0 -3.95198e-09 1.29863e-10 0 -0.00036171 0 0
79 1 0.015 0.0331676 0.142329 0 -4.00987e-09 1.75276e-09 0 -0.000166958 0 0
