ITEM: TIMESTEP
100000
ITEM: NUMBER OF ATOMS
5843
ITEM: BOX BOUNDS ff ff ff
-2.5000000000000000e-01 2.5000000000000000e-01
-2.5000000000000000e-01 2.5000000000000000e-01
-1.0000000000000001e-01 1.0000000000000001e-01
ITEM: ATOMS id type radius x y z fx fy fz v_pressure c_bendingE c_stretchingE
98 1 0.015 -0.0134962 -0.14905 -0.00140995 3.99207e-05 0.000123374 4.49521e-05 -6.17329e-06 0 3.4611e-06
2624 2 0.002 -0.013886 -0.144055 -0.000362081 1.07205e-06 -1.13414e-07 4.99126e-06 7.18531e-06 3.26218e-08 2.08407e-06
2703 2 0.002 -0.0104422 -0.146058 -0.000500571 8.41386e-07 5.35963e-07 5.51479e-07 5.57565e-06 4.09277e-08 1.45701e-06
2783 2 0.002 -0.00698296 -0.143995 -1.37161e-05 1.55718e-06 6.57826e-07 -5.09238e-06 5.16686e-06 1.63113e-08 2.61524e-08
3655 2 0.002 0.0311728 -0.141979 -5.66629e-05 -3.5733e-07 -4.93943e-07 -5.92158e-06 5.2711e-06 1.64951e-09 5.93779e-09
3498 2 0.002 0.0242403 -0.14197 -6.57832e-05 -1.14149e-06 -7.43991e-07 -1.18545e-05 6.17223e-06 5.15761e-10 8.63801e-09
3576 2 0.002 0.0277084 -0.143981 -4.70331e-05 -3.63512e-07 -1.70151e-07 1.2975e-06 2.50809e-06 3.85363e-10 5.17605e-09
3419 2 0.002 0.0207792 -0.143979 7.92846e-06 -8.25e-07 3.6352e-08 1.18206e-05 5.67375e-06 5.13665e-10 6.36046e-09
1477 2 0.002 -0.06584 -0.130024 -0.000460743 -5.83386e-07 -4.76875e-06 -4.78762e-05 7.23467e-07 1.01644e-08 4.23682e-08
1478 2 0.002 -0.0658499 -0.126044 -0.000693182 4.75747e-07 -4.79331e-07 -4.0284e-06 3.93087e-06 6.68151e-09 3.78578e-07
1406 2 0.002 -0.0692991 -0.128017 -0.000378333 4.51522e-06 1.28623e-06 4.03264e-05 1.86563e-07 8.26614e-09 1.04552e-08
56 1 0.015 -0.0677749 -0.129683 -0.00108553 -3.71598e-05 -4.10524e-05 1.02006e-06 -2.79508e-06 0 4.09205e-07
1336 2 0.002 -0.0727448 -0.125997 -0.00011578 -5.28795e-07 -5.1503e-08 -1.77846e-05 1.66267e-06 1.99107e-09 4.87233e-10
1849 2 0.002 -0.04847 -0.127982 -0.000545988 -6.28313e-07 2.10176e-07 -1.62264e-05 2.1914e-06 8.37375e-10 3.27159e-09
1774 2 0.002 -0.0519335 -0.125985 -0.00077356 -1.28702e-07 2.85417e-06 1.14874e-05 2.36836e-06 6.79412e-10 4.01703e-09
1848 2 0.002 -0.048485 -0.131985 -0.000247151 -1.4911e-06 9.73674e-07 2.9143e-06 3.23194e-06 7.59164e-10 2.01665e-09
1550 2 0.002 -0.0623624 -0.128011 -0.000629187 3.25977e-07 1.16256e-06 1.58122e-05 4.33468e-06 4.83924e-09 4.44531e-09
1624 2 0.002 -0.058884 -0.125995 -0.000710081 3.62855e-07 1.12645e-06 -2.94428e-06 4.65566e-06 1.70098e-09 4.63775e-09
1623 2 0.002 -0.0588865 -0.129995 -0.000473178 3.67957e-07 5.68232e-07 -4.50271e-06 3.67322e-06 8.78532e-10 2.51165e-09
1622 2 0.002 -0.0588877 -0.133993 -0.00017482 4.41552e-08 -1.91466e-07 -9.25889e-06 2.9904e-06 9.99537e-10 1.74115e-09
1772 2 0.002 -0.051955 -0.133989 -0.000192178 -5.62135e-07 4.56138e-07 -1.36087e-06 1.55053e-06 6.01199e-10 2.24206e-09
1697 2 0.002 -0.0554181 -0.131988 -0.000335956 -9.96285e-08 7.63666e-07 -6.30596e-07 1.6579e-06 3.12408e-10 2.03887e-09
1698 2 0.002 -0.0554116 -0.127988 -0.00061784 6.37262e-09 1.33503e-06 -3.06007e-06 4.14633e-06 4.44392e-10 3.21168e-09
1773 2 0.002 -0.0519453 -0.129985 -0.000465484 -7.05873e-07 1.66253e-06 4.47218e-06 1.90662e-06 2.78706e-10 2.69362e-09
1549 2 0.002 -0.0623574 -0.132002 -0.000300116 4.91845e-07 1.64824e-06 1.79531e-05 3.10943e-06 3.8154e-09 1.75867e-09
1696 2 0.002 -0.0554228 -0.135992 -0.000101586 -4.34546e-08 5.46017e-07 7.0945e-06 1.28387e-06 6.4659e-10 1.29603e-09
1847 2 0.002 -0.0484956 -0.135992 -4.13978e-05 -7.26233e-07 1.48526e-07 -1.56044e-06 2.27322e-06 6.71559e-10 1.21696e-09
1925 2 0.002 -0.0449939 -0.125984 -0.000595401 -1.61573e-06 2.12093e-06 6.63052e-06 2.69243e-06 1.6914e-09 5.093e-09
2001 2 0.002 -0.0415456 -0.127986 -0.000132057 -2.13834e-06 9.86004e-08 -2.15108e-06 2.5396e-06 1.48497e-09 4.79554e-09
1924 2 0.002 -0.0450134 -0.129984 -0.00023584 -2.70408e-06 1.65056e-06 9.5216e-06 4.0085e-06 1.02447e-09 2.9523e-09
1923 2 0.002 -0.0450308 -0.13399 2.8324e-05 -1.908e-06 2.48323e-07 4.94126e-07 2.65532e-06 1.62665e-09 1.7729e-09
3502 2 0.002 0.0242108 -0.125881 -0.00106145 -5.44114e-07 -1.58119e-06 -1.98405e-06 1.18081e-05 5.16754e-09 2.19622e-08
3344 2 0.002 0.0172901 -0.12588 -0.000185115 6.96136e-07 -2.14088e-07 -5.16369e-06 9.96794e-06 1.8128e-09 1.73062e-08
3422 2 0.002 0.0207597 -0.131906 -0.000332552 -9.97178e-07 -1.0784e-06 1.06763e-06 4.01953e-06 8.47107e-10 1.0421e-08
3423 2 0.002 0.0207528 -0.127886 -0.000546809 7.10651e-07 -7.79556e-07 7.02443e-06 9.67348e-06 1.73182e-09 1.46764e-08
3501 2 0.002 0.0242218 -0.1299 -0.000697973 -8.46168e-07 -1.55359e-06 1.75274e-06 9.17481e-06 1.6793e-09 1.43512e-08
3579 2 0.002 0.027696 -0.13192 -0.000630957 -1.45724e-06 -1.67229e-06 -1.58553e-06 4.33413e-06 1.83621e-09 1.58286e-08
3580 2 0.002 0.0276848 -0.127903 -0.0010518 -1.44634e-06 -1.71118e-06 -2.74009e-06 1.09104e-05 3.85926e-09 2.46662e-08
3499 2 0.002 0.0242346 -0.137944 -0.000200728 -1.64305e-06 -1.0638e-06 -2.86926e-06 6.66766e-06 5.38436e-10 8.6188e-09
3578 2 0.002 0.0277011 -0.135938 -0.000333075 -1.31272e-06 -1.26736e-06 5.40356e-07 6.99931e-06 9.71262e-10 9.55971e-09
3421 2 0.002 0.0207664 -0.135929 -0.000147144 -2.43341e-06 -1.5314e-06 -1.42472e-05 6.99261e-06 4.82095e-10 8.66294e-09
3500 2 0.002 0.0242295 -0.133921 -0.000409422 -1.23803e-06 -1.09344e-06 5.99095e-06 3.7929e-06 9.40563e-10 1.04625e-08
3656 2 0.002 0.0311715 -0.137958 -0.000143846 -5.51426e-07 -1.09738e-06 -9.23654e-06 6.28286e-06 1.60632e-09 7.66186e-09
3657 2 0.002 0.0311713 -0.133944 -0.000393062 -1.65288e-06 -5.06132e-07 5.80578e-06 2.80984e-06 1.50128e-09 1.87825e-08
3658 2 0.002 0.0311604 -0.129928 -0.000786265 -1.7962e-06 -9.52454e-07 1.18625e-06 3.29799e-06 1.84214e-09 2.64108e-08
3577 2 0.002 0.0277041 -0.13996 -0.000152498 -1.00142e-06 -4.70125e-07 6.54738e-06 2.95892e-06 6.717e-10 6.91645e-09
3659 2 0.002 0.0311493 -0.125915 -0.00129748 -2.00905e-06 4.23114e-08 6.96564e-06 6.15382e-06 5.03461e-09 3.54213e-08
3343 2 0.002 0.0172921 -0.129898 -0.000108801 -4.41458e-07 -3.73139e-07 -3.23448e-06 8.39605e-06 9.33838e-10 1.0979e-08
3342 2 0.002 0.0172977 -0.133918 -3.80157e-06 -1.21611e-06 -2.20508e-07 -3.09633e-07 7.36085e-06 4.79356e-10 8.60114e-09
3420 2 0.002 0.0207706 -0.139955 -4.06899e-05 -1.23985e-06 -2.76021e-07 1.64251e-05 6.49531e-06 3.69333e-10 7.73151e-09
3736 2 0.002 0.0346184 -0.12794 -0.000824479 -1.82038e-06 -9.663e-07 -3.66327e-06 3.54517e-06 1.09972e-09 3.41012e-08
3814 2 0.002 0.0380741 -0.12595 -0.00075758 -2.6976e-06 2.096e-07 3.11012e-06 3.35286e-06 1.71352e-09 2.79087e-08
3968 2 0.002 0.0450085 -0.125976 -0.000373514 -1.93866e-06 8.89871e-07 -5.64578e-06 0.00744052 1.76744e-09 9.33129e-09
3735 2 0.002 0.0346313 -0.131956 -0.00036435 -1.39984e-06 -1.00783e-06 -4.13245e-06 2.44383e-06 1.46286e-09 3.29969e-08
3891 2 0.002 0.0415382 -0.127978 -0.000340651 -2.0313e-06 4.60505e-07 -2.31773e-06 3.10573e-06 1.69834e-09 2.34873e-08
3813 2 0.002 0.0380825 -0.129971 -0.000337003 -2.42576e-06 8.56116e-07 7.39507e-06 2.56933e-06 1.27771e-09 3.59154e-08
3967 2 0.002 0.0450064 -0.129992 -0.00010209 -1.50597e-06 9.65443e-07 -3.77866e-06 8.07157e-06 1.67964e-09 1.163e-08
4341 2 0.002 0.062415 -0.132058 -0.000784656 -6.99782e-07 1.50601e-06 2.23749e-06 3.00291e-06 5.90829e-08 2.73634e-08
4342 2 0.002 0.0624473 -0.128089 -0.00119153 -1.53102e-06 1.93203e-06 -3.82459e-06 5.96914e-06 5.29562e-08 1.14261e-07
4268 2 0.002 0.058935 -0.13003 -0.000796431 -1.29197e-06 1.82342e-06 -1.54662e-06 2.68976e-06 1.30986e-08 1.59559e-08
4194 2 0.002 0.0554528 -0.128008 -0.000620526 -1.39612e-06 2.48919e-06 -6.27627e-07 3.64687e-06 2.24093e-09 1.20129e-08
4267 2 0.002 0.0589116 -0.134003 -0.000346853 -5.23341e-07 3.38826e-07 -5.1352e-06 1.42014e-06 7.78413e-09 6.37735e-09
4269 2 0.002 0.0589492 -0.126034 -0.000845135 -1.54885e-06 2.68544e-06 -4.24381e-06 3.58479e-06 4.89231e-09 3.54372e-08
4192 2 0.002 0.0554301 -0.135993 -0.000129836 -3.53674e-07 8.4311e-07 1.51931e-06 1.6626e-06 1.99001e-09 2.22923e-09
4119 2 0.002 0.051971 -0.125993 -0.000459892 -1.74552e-06 2.53834e-06 -3.04946e-06 6.81126e-06 1.36743e-09 8.51766e-09
4193 2 0.002 0.0554389 -0.132001 -0.000431183 -4.01301e-07 2.31306e-06 9.75091e-06 2.75898e-06 2.39237e-09 7.91264e-09
4043 2 0.002 0.0484844 -0.127988 -0.00029869 -1.39864e-06 2.0149e-06 6.47744e-06 0.00676251 1.24166e-09 7.0483e-09
4118 2 0.002 0.0519618 -0.129996 -0.000351216 -1.40446e-06 1.87079e-06 -3.34668e-06 6.34605e-06 1.10575e-09 7.98158e-09
4117 2 0.002 0.051955 -0.133995 -0.000141942 -9.58217e-07 7.25017e-07 -8.47071e-06 2.71882e-06 1.04416e-09 5.91874e-09
4042 2 0.002 0.0484791 -0.131995 -7.14586e-05 -9.63785e-07 1.21358e-06 -1.37235e-06 6.78057e-06 1.83078e-09 8.25516e-09
76 1 0.015 0.0667366 -0.131646 -0.00305861 -4.65695e-05 -4.22798e-05 -1.36907e-05 -7.58618e-06 0 1.8676e-06
4414 2 0.002 0.0659661 -0.130226 -0.00152665 -1.00239e-06 9.88447e-07 1.59173e-06 4.69388e-05 1.67756e-07 2.04287e-06
4415 2 0.002 0.0658902 -0.126099 -0.00113117 -1.17873e-06 1.62585e-06 8.49363e-07 6.14823e-06 5.36326e-08 1.41575e-07
4486 2 0.002 0.0693201 -0.128065 -0.000733153 -1.30485e-06 9.79629e-07 3.86922e-06 4.09227e-06 5.77312e-08 3.35545e-08
4557 2 0.002 0.0727563 -0.12601 -0.000230864 -4.34637e-07 5.3517e-07 -1.07092e-06 6.55188e-07 6.60621e-09 9.76646e-09
1479 2 0.002 -0.0658116 -0.122009 -0.000468409 8.97581e-07 -4.13669e-07 8.41214e-06 3.31481e-06 3.72688e-09 1.28874e-08
1407 2 0.002 -0.0692808 -0.124003 -0.000340038 -5.23982e-07 1.1438e-06 -1.41193e-05 3.59622e-06 5.21849e-09 2.51322e-09
1408 2 0.002 -0.0692599 -0.119995 -0.000102271 -9.132e-08 1.23245e-07 -6.64576e-07 4.5491e-06 1.17082e-09 3.31528e-09
1480 2 0.002 -0.0657847 -0.117998 -0.000132497 -2.25009e-07 5.56601e-07 -2.65396e-06 5.86494e-06 8.79672e-10 6.2924e-09
1337 2 0.002 -0.072734 -0.121991 -4.28371e-05 3.8029e-07 -6.56008e-07 1.07766e-05 3.05012e-06 1.26459e-09 1.40606e-09
1267 2 0.002 -0.0762058 -0.123993 1.80271e-05 -3.74419e-09 -1.70396e-07 2.33404e-06 2.35123e-06 7.26257e-10 1.02264e-09
1626 2 0.002 -0.0588534 -0.11798 -0.000653129 7.96815e-07 1.25346e-06 2.40588e-06 3.02311e-06 2.36212e-09 6.59933e-09
1851 2 0.002 -0.0484393 -0.119988 -0.00135317 1.48092e-06 2.22468e-06 -1.153e-06 7.70874e-06 5.17436e-09 9.37933e-09
1552 2 0.002 -0.0623342 -0.119992 -0.000522849 2.94489e-07 9.88182e-07 -1.49282e-06 5.75936e-06 2.07437e-09 6.46155e-09
1776 2 0.002 -0.0519099 -0.117977 -0.0012763 1.61739e-06 2.12703e-06 -8.03181e-07 7.70563e-06 5.28566e-09 1.17718e-08
1778 2 0.002 -0.0518869 -0.109982 -0.00106802 1.64945e-06 4.24483e-07 4.34114e-07 6.492e-06 4.89703e-09 4.68823e-08
1777 2 0.002 -0.0519008 -0.113972 -0.00132095 2.4103e-06 1.43137e-06 1.89761e-06 5.18762e-06 6.90611e-09 2.33958e-08
1852 2 0.002 -0.0484328 -0.115989 -0.00177081 3.22179e-06 2.01708e-06 2.40193e-06 1.20108e-05 1.82683e-08 2.69393e-08
1853 2 0.002 -0.0484337 -0.111984 -0.00188402 3.74332e-06 7.93888e-07 1.97988e-06 1.67037e-05 4.01858e-08 6.1345e-08
1700 2 0.002 -0.0553906 -0.119979 -0.000957748 1.01358e-06 2.02814e-06 9.63072e-07 2.98583e-06 2.97585e-09 7.44037e-09
1775 2 0.002 -0.0519213 -0.121982 -0.00105883 7.26434e-07 2.31386e-06 -8.42933e-07 5.8314e-06 2.12101e-09 6.24942e-09
1850 2 0.002 -0.0484534 -0.123984 -0.000925954 -3.77746e-08 1.94758e-06 -3.30642e-06 5.69327e-06 1.60404e-09 5.35306e-09
1701 2 0.002 -0.0553741 -0.115973 -0.000905568 6.3425e-07 1.76714e-06 -4.99808e-06 7.3435e-06 3.39964e-09 1.06843e-08
1702 2 0.002 -0.0553549 -0.111979 -0.000657087 7.84748e-07 7.83398e-07 7.62115e-08 9.38401e-06 2.18067e-09 2.08049e-08
1627 2 0.002 -0.0588292 -0.113983 -0.000364656 8.89549e-07 5.35136e-07 5.31981e-06 7.26482e-06 1.742e-09 9.43801e-09
1551 2 0.002 -0.0623607 -0.124006 -0.000698751 4.93533e-07 8.96964e-07 -3.48642e-06 3.21976e-06 3.95757e-09 1.26898e-08
1625 2 0.002 -0.0588741 -0.121988 -0.00077311 7.18963e-07 1.45191e-06 1.74682e-06 5.52694e-06 2.30401e-09 7.32049e-09
1699 2 0.002 -0.0554029 -0.123985 -0.000845922 3.23194e-07 1.80687e-06 -3.5281e-06 2.48548e-06 1.56732e-09 5.0796e-09
1553 2 0.002 -0.0623072 -0.11599 -0.000200538 1.07968e-07 7.12939e-07 7.99001e-07 6.22052e-06 1.35283e-09 5.93318e-09
24 1 0.015 -0.043969 -0.112544 -0.00457758 0.00021819 -5.32673e-05 -2.95072e-05 -5.25821e-06 0 1.21929e-06
1929 2 0.002 -0.0449623 -0.110008 -0.00243895 4.60785e-06 1.40164e-07 6.67049e-07 3.30476e-05 5.44774e-08 6.84511e-07
1926 2 0.002 -0.044973 -0.121989 -0.00106308 4.81756e-07 2.1866e-06 3.23295e-06 7.49832e-06 4.08636e-09 1.02778e-08
2160 2 0.002 -0.0345642 -0.112077 -0.000682558 5.62256e-06 5.22151e-07 -5.03671e-06 3.57498e-06 6.69666e-09 4.98372e-08
2083 2 0.002 -0.0380034 -0.11008 -0.0015284 3.94906e-06 1.25086e-06 6.07204e-06 6.89646e-06 2.17266e-08 5.39825e-08
2081 2 0.002 -0.0380354 -0.118017 -0.000800415 2.5553e-06 3.38875e-08 1.22267e-06 5.79806e-06 4.26263e-09 4.91709e-08
1927 2 0.002 -0.0449547 -0.118005 -0.00167799 2.91041e-06 2.2387e-06 3.6761e-06 1.18812e-05 1.78067e-08 2.6404e-08
1928 2 0.002 -0.0449529 -0.11403 -0.00245769 4.65998e-06 1.00003e-06 -6.91229e-07 2.47752e-05 5.11379e-08 2.95616e-07
2003 2 0.002 -0.0414967 -0.120001 -0.00106483 2.02262e-06 5.86674e-07 -1.47988e-06 4.85306e-06 5.79712e-09 2.16473e-08
2004 2 0.002 -0.0414708 -0.116031 -0.0017453 4.9439e-06 8.83485e-08 -4.79923e-06 1.57939e-05 4.01181e-08 6.09529e-08
2005 2 0.002 -0.0414525 -0.112056 -0.00239816 5.44407e-06 1.07133e-06 2.66033e-06 3.03614e-05 5.36339e-08 5.53003e-07
2082 2 0.002 -0.0380088 -0.114054 -0.00135399 6.03675e-06 -2.11532e-07 -5.06228e-06 7.93329e-06 1.86578e-08 1.01893e-07
2159 2 0.002 -0.0345949 -0.116034 -0.000265761 2.90005e-06 -2.88413e-07 1.53075e-06 4.02123e-06 1.93217e-09 7.08173e-08
2080 2 0.002 -0.0380619 -0.121992 -0.00028221 -7.2571e-07 -4.20665e-08 5.0359e-06 8.20477e-06 2.09262e-09 1.83093e-08
2002 2 0.002 -0.0415226 -0.123987 -0.000527738 -4.32584e-07 3.06157e-07 -2.65939e-06 6.68357e-06 2.53759e-09 8.76832e-09
2238 2 0.002 -0.0311021 -0.110092 -0.000169897 2.36767e-06 2.31529e-06 5.16307e-06 2.7573e-06 4.635e-09 2.11484e-08
3425 2 0.002 0.0207475 -0.119856 -0.000770337 1.87799e-06 -7.7144e-08 -1.77926e-06 1.51023e-05 5.01564e-09 4.46616e-08
3426 2 0.002 0.0207548 -0.115859 -0.000531547 2.33447e-06 8.50987e-07 -3.38735e-06 1.67826e-05 4.06321e-09 6.42175e-08
3503 2 0.002 0.0242028 -0.121861 -0.0014279 8.33806e-08 -6.02496e-07 -6.47187e-07 1.77253e-05 1.90067e-08 5.9685e-08
3504 2 0.002 0.0242011 -0.117851 -0.00145582 7.91462e-08 4.72574e-07 -3.27174e-06 2.21243e-05 3.67776e-08 9.77331e-08
3505 2 0.002 0.0242085 -0.11385 -0.00100226 1.23649e-06 1.01575e-06 -7.83921e-07 1.06818e-05 1.41758e-08 1.12253e-07
3582 2 0.002 0.0276637 -0.119881 -0.00229738 -6.24006e-07 5.41593e-07 3.28001e-06 3.23187e-05 5.17582e-08 6.12097e-07
3583 2 0.002 0.0276649 -0.11585 -0.00200935 -7.17287e-07 1.42141e-06 8.66402e-07 3.87453e-05 4.60352e-08 9.03385e-07
3584 2 0.002 0.027663 -0.111852 -0.00103497 2.00411e-07 1.47944e-06 -3.1599e-06 1.03949e-05 1.39236e-08 1.09391e-07
20 1 0.015 0.0298325 -0.119209 -0.00430804 -8.5429e-05 0.000207578 3.36691e-05 -5.49782e-06 0 1.57757e-06
3581 2 0.002 0.0276704 -0.12389 -0.0016102 -9.20724e-07 -2.10847e-07 4.48667e-06 1.54292e-05 2.0912e-08 4.40108e-08
3427 2 0.002 0.0207642 -0.111871 -5.24787e-05 3.51872e-06 9.69454e-07 7.45277e-07 7.88752e-06 2.77527e-09 5.81021e-08
3424 2 0.002 0.0207492 -0.123866 -0.000732294 1.41132e-06 -7.55089e-07 1.04473e-06 1.24421e-05 4.00811e-09 2.8136e-08
3345 2 0.002 0.0172912 -0.12187 -0.000171044 3.32525e-06 9.44017e-08 1.88766e-06 1.16827e-05 2.00158e-09 2.64282e-08
3506 2 0.002 0.0242169 -0.109859 -0.000265631 2.32728e-06 1.78869e-07 4.3089e-06 7.99458e-06 4.52376e-09 5.63566e-08
3663 2 0.002 0.0311292 -0.109865 -0.000625999 -5.05752e-07 -2.89545e-08 -9.94799e-07 1.57196e-05 4.57137e-09 5.75468e-08
3662 2 0.002 0.0311288 -0.113856 -0.00148169 -6.24498e-07 1.17355e-06 -4.28609e-06 2.05781e-05 3.52513e-08 8.26142e-08
3660 2 0.002 0.031147 -0.121902 -0.00185871 -1.91513e-06 1.20833e-07 3.89087e-06 1.63358e-05 4.0143e-08 4.86866e-08
3661 2 0.002 0.0311571 -0.11787 -0.0022769 -1.83803e-06 5.12518e-07 2.4518e-06 2.91061e-05 5.03928e-08 4.20655e-07
3737 2 0.002 0.0346114 -0.123923 -0.00127832 -1.35874e-06 -1.20677e-06 -8.80398e-06 6.07817e-06 4.66462e-09 3.51189e-08
3816 2 0.002 0.038068 -0.117907 -0.00105596 -2.69914e-06 -3.70447e-07 2.86739e-06 1.12091e-05 4.48383e-09 1.96917e-08
3739 2 0.002 0.0345984 -0.115878 -0.00142365 -1.58071e-06 -2.20787e-07 -1.64462e-06 1.62777e-05 1.71925e-08 4.6093e-08
3738 2 0.002 0.0346108 -0.119898 -0.00158838 -1.36675e-06 -4.38602e-07 -5.46112e-06 1.45998e-05 1.95873e-08 3.92372e-08
3740 2 0.002 0.0345925 -0.111878 -0.000826376 -1.38357e-06 -8.11222e-07 1.08862e-06 1.39762e-05 4.58481e-09 3.44478e-08
3818 2 0.002 0.0380651 -0.109903 -0.000251583 -1.70193e-06 -1.05522e-06 1.18417e-06 1.08581e-05 1.54818e-09 1.93059e-08
3817 2 0.002 0.0380616 -0.1139 -0.000743946 -1.54781e-06 -1.41396e-07 -3.32326e-06 1.17984e-05 3.3121e-09 2.32659e-08
3894 2 0.002 0.041536 -0.115923 -0.000548073 -2.18392e-06 1.23445e-07 -4.94842e-07 9.42828e-06 1.52933e-09 1.39036e-08
3895 2 0.002 0.0415372 -0.111923 -0.000193105 -1.43647e-06 -1.62588e-08 -3.77818e-06 4.94361e-06 1.14002e-09 1.61571e-08
3892 2 0.002 0.0415366 -0.123955 -0.000626551 -2.48261e-06 4.41253e-07 -2.08836e-07 4.32188e-06 2.28543e-09 1.56492e-08
3893 2 0.002 0.0415371 -0.119935 -0.000711625 -2.87376e-06 2.52953e-07 4.54451e-06 8.7753e-06 2.08572e-09 1.28611e-08
3815 2 0.002 0.0380702 -0.121927 -0.0010359 -2.6922e-06 -1.33859e-07 1.03345e-06 1.05446e-05 3.62662e-09 2.32269e-08
3969 2 0.002 0.0450112 -0.121959 -0.000484519 -2.50165e-06 1.15353e-06 4.84523e-06 7.37063e-06 1.82951e-09 9.00798e-09
3970 2 0.002 0.0450118 -0.117946 -0.000377662 -1.63284e-06 1.29473e-06 -8.05139e-06 3.94555e-06 1.37511e-09 9.83047e-09
3971 2 0.002 0.0450123 -0.113943 -9.24353e-05 -1.79671e-06 2.15465e-07 8.37221e-07 4.31215e-06 7.44067e-10 1.16407e-08
4343 2 0.002 0.0624174 -0.12405 -0.000891937 -1.04922e-06 2.44432e-06 2.95082e-07 3.99064e-06 1.26296e-08 3.45508e-08
4195 2 0.002 0.0554601 -0.124006 -0.000571387 -1.2294e-06 2.85876e-06 1.70888e-06 8.13502e-06 2.0772e-09 1.56791e-08
4270 2 0.002 0.0589373 -0.12202 -0.000579326 -7.64716e-07 2.73164e-06 3.72459e-06 4.57351e-06 2.19169e-09 1.87969e-08
4344 2 0.002 0.062401 -0.120028 -0.000439341 -3.71806e-07 2.79215e-06 2.03762e-06 3.12619e-06 1.52893e-09 2.05166e-08
4271 2 0.002 0.0589266 -0.118011 -0.000169431 -4.44036e-07 4.05784e-06 -7.42718e-06 4.11879e-06 4.7392e-10 1.36078e-08
4196 2 0.002 0.0554552 -0.119999 -0.000312524 -9.99136e-07 3.25107e-06 -1.92738e-06 3.89991e-06 1.12893e-09 1.23373e-08
4044 2 0.002 0.04849 -0.123978 -0.000405472 -1.97004e-06 2.10623e-06 8.3521e-06 0.00677672 1.59825e-09 7.42485e-09
4120 2 0.002 0.051975 -0.121986 -0.000386634 -1.52387e-06 2.79811e-06 -5.05061e-06 7.15768e-06 1.56884e-09 9.81271e-09
4045 2 0.002 0.0484919 -0.119967 -0.000318705 -1.68709e-06 2.10605e-06 -5.84291e-06 7.12123e-06 1.54562e-09 8.53471e-09
4046 2 0.002 0.0484907 -0.115962 -5.76709e-05 -1.77711e-06 8.37589e-07 6.75303e-06 7.67947e-06 9.64073e-10 9.21484e-09
4121 2 0.002 0.0519724 -0.11798 -0.000135629 -1.30678e-06 1.95888e-06 5.80949e-06 7.39186e-06 1.16555e-09 9.62893e-09
4345 2 0.002 0.0623929 -0.116017 2.15743e-05 2.13237e-07 2.46091e-06 6.93988e-06 4.05615e-06 4.05095e-10 1.32096e-08
4197 2 0.002 0.0554482 -0.115997 7.80223e-05 -5.01933e-07 2.90408e-06 -5.89992e-07 7.70142e-06 4.98202e-10 1.07458e-08
4487 2 0.002 0.0693206 -0.124033 -0.000603995 -5.61423e-07 1.65037e-06 -1.88639e-06 2.64012e-06 1.42471e-08 2.61621e-08
4416 2 0.002 0.0658673 -0.122046 -0.000637865 -5.29684e-07 2.70162e-06 -3.78598e-06 3.74095e-06 3.64946e-09 4.59839e-08
4488 2 0.002 0.0693234 -0.120019 -0.000212949 -7.06289e-07 1.50516e-06 4.58639e-06 2.50097e-06 1.79471e-09 1.86568e-08
4417 2 0.002 0.0658615 -0.118025 -0.00015711 1.57992e-07 3.55395e-06 -6.96783e-06 2.86993e-06 1.06706e-09 1.91261e-08
4558 2 0.002 0.0727767 -0.122005 -8.65538e-05 -8.13569e-07 7.70819e-07 3.98872e-06 1.64051e-06 3.2212e-09 1.58525e-08
637 2 0.002 -0.110826 -0.0959878 -0.000132472 7.35975e-07 -2.53274e-07 -1.4448e-06 8.05231e-06 1.20803e-09 1.46986e-08
694 2 0.002 -0.107354 -0.0979849 -0.000224947 1.56263e-06 6.08714e-08 6.60157e-06 9.38458e-06 1.57109e-09 2.22377e-08
695 2 0.002 -0.107329 -0.0939753 -0.000403198 1.97942e-06 -6.99044e-07 -1.92631e-06 4.77991e-06 9.96603e-10 2.2224e-08
816 2 0.002 -0.100352 -0.0939486 -0.0009219 3.46405e-06 -4.93075e-07 -1.13583e-06 1.25761e-05 2.51604e-09 4.13488e-08
754 2 0.002 -0.103855 -0.0959673 -0.000545504 2.39546e-06 -6.83748e-07 -2.02322e-06 5.32755e-06 1.03804e-09 3.04369e-08
878 2 0.002 -0.0968821 -0.0959396 -0.000882032 3.68137e-06 5.5812e-07 4.99466e-06 1.23953e-05 3.28281e-09 3.44776e-08
877 2 0.002 -0.0969239 -0.0999468 -0.000456924 2.6661e-06 -5.25371e-07 -5.20056e-06 3.26137e-06 1.48902e-09 2.2528e-08
753 2 0.002 -0.103888 -0.0999796 -0.000258993 1.39205e-06 -4.15746e-07 -2.4192e-06 5.16177e-06 1.78633e-09 2.95995e-08
814 2 0.002 -0.100424 -0.101967 -0.000250107 1.61244e-06 -7.25097e-09 1.33341e-06 3.11734e-06 1.48746e-09 2.59704e-08
815 2 0.002 -0.100388 -0.0979563 -0.000575389 2.78479e-06 -2.07974e-07 5.95924e-07 3.55501e-06 1.12853e-09 3.1515e-08
813 2 0.002 -0.100444 -0.105978 -6.82035e-05 5.09372e-07 -4.32894e-08 -5.88756e-06 3.2042e-06 9.56568e-10 9.99504e-09
876 2 0.002 -0.0969571 -0.103959 -0.000166858 1.59451e-06 -2.46441e-08 1.16666e-06 3.67484e-06 1.19777e-09 1.19602e-08
875 2 0.002 -0.0969843 -0.107977 -2.74476e-05 6.3915e-07 3.79327e-08 1.30319e-06 1.77742e-06 1.49105e-09 8.26443e-09
1072 2 0.002 -0.0864443 -0.0939414 -0.000259186 3.06971e-06 1.04324e-06 1.83796e-06 1.38306e-05 3.37624e-09 3.38712e-08
941 2 0.002 -0.0934234 -0.0979343 -0.000580232 3.26378e-06 1.48736e-07 4.82323e-07 1.1443e-05 2.90442e-09 2.43189e-08
942 2 0.002 -0.0933724 -0.0939259 -0.00111423 4.14951e-06 4.34742e-07 2.20833e-06 1.60103e-05 9.58602e-09 4.71155e-08
1006 2 0.002 -0.089928 -0.0959323 -0.000542293 3.70931e-06 1.15285e-07 -1.61573e-06 1.29843e-05 3.34098e-09 2.59088e-08
940 2 0.002 -0.0934657 -0.101948 -0.000198308 2.30664e-06 -1.32798e-07 -1.88619e-06 4.33687e-06 1.5248e-09 1.39225e-08
1005 2 0.002 -0.0899769 -0.0999457 -0.000131668 2.62489e-06 -4.09295e-08 -1.61077e-06 5.05881e-06 1.4155e-09 1.65655e-08
1779 2 0.002 -0.0518646 -0.106013 -0.000521704 -8.11202e-07 3.70523e-07 -6.47183e-06 6.88745e-06 2.11428e-09 5.72431e-08
1855 2 0.002 -0.0483983 -0.104029 -0.000711944 1.34959e-06 -1.78285e-06 4.74357e-06 4.6501e-06 4.7024e-09 4.62478e-08
1854 2 0.002 -0.0484215 -0.107995 -0.0014778 2.78788e-06 -4.45601e-07 2.13964e-06 9.02902e-06 1.88669e-08 9.92864e-08
1703 2 0.002 -0.055333 -0.108004 -0.000200653 3.65512e-07 -4.78413e-07 3.54582e-06 5.73952e-06 1.20437e-09 3.85193e-08
1930 2 0.002 -0.0449517 -0.10603 -0.0014946 2.4316e-06 1.01056e-07 1.25821e-07 8.62588e-06 2.02372e-08 7.20249e-08
2006 2 0.002 -0.0414784 -0.108051 -0.00184054 3.52694e-06 4.34827e-07 6.64051e-06 1.6536e-05 4.29648e-08 4.09061e-08
2084 2 0.002 -0.0380007 -0.10608 -0.00127499 3.49553e-06 2.42593e-06 -1.11251e-06 8.82442e-06 9.91006e-09 1.39498e-08
2162 2 0.002 -0.0345098 -0.1041 -0.000945574 2.42006e-06 3.59225e-06 1.09985e-06 2.87034e-06 7.37123e-09 7.34369e-09
2007 2 0.002 -0.0414687 -0.104061 -0.00116929 2.15107e-06 1.74841e-06 -2.84685e-06 1.10746e-05 7.0123e-09 2.17126e-08
2161 2 0.002 -0.0345393 -0.108099 -0.000902552 4.04541e-06 2.32168e-06 -2.79899e-06 2.56475e-06 8.69958e-09 1.9699e-08
2164 2 0.002 -0.0344369 -0.0961003 -0.000628487 -1.33838e-06 4.46825e-06 -1.26409e-06 4.17696e-06 2.8152e-09 1.42403e-08
1931 2 0.002 -0.0449204 -0.102057 -0.000659058 1.76018e-07 1.60936e-06 -1.02057e-05 6.2562e-06 3.48306e-09 3.37522e-08
2085 2 0.002 -0.0379768 -0.10208 -0.000908704 1.62706e-06 2.90151e-06 -4.42235e-06 7.38707e-06 5.02981e-09 8.63805e-09
2163 2 0.002 -0.0344756 -0.100097 -0.000845772 2.7462e-07 4.42314e-06 -3.18231e-06 3.18509e-06 5.33632e-09 8.08275e-09
2008 2 0.002 -0.0414332 -0.100073 -0.000537509 1.0756e-06 -2.64605e-07 8.05114e-06 4.84206e-06 2.53089e-09 1.56712e-08
2086 2 0.002 -0.0379364 -0.098086 -0.000497248 3.25525e-07 1.64239e-06 8.59867e-06 4.02506e-06 2.66798e-09 1.01689e-08
2087 2 0.002 -0.037887 -0.0941001 -3.93709e-05 -2.35559e-06 3.30113e-06 -7.71803e-06 9.50973e-06 1.63003e-09 1.51801e-08
2009 2 0.002 -0.0413815 -0.0960919 7.55547e-05 -1.11391e-06 8.42489e-07 -1.34162e-06 9.99723e-06 1.30821e-09 1.51556e-08
92 1 0.015 -0.0194776 -0.0961511 -0.00444911 -0.000266609 0.000214352 -4.77794e-05 -7.6012e-06 0 1.63203e-06
2475 2 0.002 -0.0206363 -0.104177 -0.000269293 -2.54526e-06 3.89766e-06 1.70585e-06 1.34309e-05 4.77582e-09 5.43374e-08
2240 2 0.002 -0.0310078 -0.102122 -0.000906802 7.46785e-07 5.48901e-06 1.10954e-05 5.93034e-06 7.5256e-09 6.9625e-09
2319 2 0.002 -0.0275032 -0.100159 -0.00116273 -1.517e-06 5.22185e-06 -8.68069e-06 9.15427e-06 9.40794e-09 1.55344e-08
2318 2 0.002 -0.0275526 -0.104143 -0.000617773 9.45355e-07 3.51325e-06 -6.7389e-06 7.3683e-06 6.27249e-09 8.54485e-09
2396 2 0.002 -0.0241237 -0.106142 -3.25868e-05 -6.93295e-07 4.01496e-06 4.51275e-06 1.03893e-05 3.23648e-09 2.53297e-08
2556 2 0.002 -0.0170938 -0.0982385 -0.0013796 -5.74557e-06 5.46446e-06 2.38707e-07 1.97711e-05 4.93843e-08 7.22423e-08
2477 2 0.002 -0.0204896 -0.0963358 -0.00259418 -5.71177e-06 8.76666e-06 6.17655e-07 3.96326e-05 7.65944e-08 8.74844e-07
2398 2 0.002 -0.0240036 -0.0982256 -0.00174762 -2.60048e-06 8.00036e-06 2.4342e-06 1.71502e-05 3.75664e-08 5.65989e-08
2476 2 0.002 -0.0205586 -0.100249 -0.00137367 -3.26884e-06 4.75586e-06 -4.74415e-06 1.77376e-05 3.24198e-08 7.83561e-08
2241 2 0.002 -0.0309726 -0.0981215 -0.00102616 -1.29869e-06 5.89126e-06 -6.47777e-06 3.97116e-06 5.59237e-09 1.38165e-08
2320 2 0.002 -0.027478 -0.0961635 -0.00147235 -1.64687e-06 7.77756e-06 5.81713e-06 1.269e-05 9.04402e-09 3.34314e-08
2397 2 0.002 -0.0240534 -0.102191 -0.000932794 -1.4494e-06 4.53625e-06 -5.3928e-06 1.12512e-05 1.03241e-08 2.67245e-08
2555 2 0.002 -0.0171648 -0.102185 -0.000386161 -3.8128e-06 2.71768e-06 -2.12724e-06 1.48028e-05 7.63884e-09 5.13506e-08
2242 2 0.002 -0.0309458 -0.0941233 -0.000969965 -1.91288e-06 6.187e-06 3.03983e-06 5.47796e-06 2.30702e-09 2.93542e-08
2399 2 0.002 -0.0239942 -0.0942279 -0.00210685 -4.74074e-06 9.12191e-06 -3.04876e-06 2.21996e-05 5.43616e-08 1.13237e-07
2557 2 0.002 -0.0170506 -0.0942562 -0.00209304 -6.46888e-06 6.75917e-06 1.35192e-06 3.02263e-05 5.37074e-08 3.35089e-07
2239 2 0.002 -0.0310522 -0.106116 -0.000596191 2.933e-06 2.79674e-06 -6.44125e-06 2.01916e-06 7.23229e-09 7.56953e-09
2317 2 0.002 -0.0276173 -0.10811 4.78752e-05 1.21005e-06 2.87092e-06 3.65163e-06 8.30299e-06 4.05359e-09 1.11704e-08
2635 2 0.002 -0.0137227 -0.100142 -0.000182697 -4.1805e-06 1.16264e-06 -5.42084e-06 1.47614e-05 4.74706e-09 3.92058e-08
2636 2 0.002 -0.0136845 -0.0961573 -0.000844334 -4.98391e-06 2.75774e-06 -3.48427e-06 1.75473e-05 1.43069e-08 4.89501e-08
2716 2 0.002 -0.0102975 -0.0940727 -0.000116524 -5.84104e-06 7.07642e-07 4.07107e-06 1.47865e-05 2.68337e-09 3.32486e-08
3585 2 0.002 0.027679 -0.107863 -0.000139907 5.20821e-07 6.50919e-08 1.35118e-06 5.17432e-06 3.16473e-09 6.57489e-08
3741 2 0.002 0.0345984 -0.107886 -0.000139539 -1.31013e-06 -9.66115e-07 -1.466e-08 1.19819e-05 1.56714e-09 2.82902e-08
4967 2 0.002 0.093606 -0.0939724 -0.000446101 -2.78184e-06 -2.42655e-06 -3.10445e-06 3.73169e-06 1.45038e-10 9.02578e-09
4966 2 0.002 0.0935943 -0.09798 -0.000172181 -1.95102e-06 -1.87604e-06 -1.47179e-06 2.07213e-06 5.30806e-10 1.01616e-08
4902 2 0.002 0.0901438 -0.0959695 3.11695e-05 -1.93188e-06 -1.57062e-06 2.63242e-08 3.41238e-06 1.63404e-10 1.0429e-08
5091 2 0.002 0.100496 -0.101996 -0.00035284 -5.23464e-07 -1.27409e-06 -4.21494e-06 8.96433e-07 5.41379e-09 6.09124e-09
5153 2 0.002 0.103995 -0.100043 -0.000748425 -4.9757e-07 1.67439e-06 1.0171e-05 3.83667e-06 3.50724e-08 2.0234e-08
5213 2 0.002 0.107533 -0.0981661 -0.00137433 -5.37556e-07 1.87875e-07 1.18214e-06 2.44775e-05 1.00655e-07 5.07526e-07
5030 2 0.002 0.0970652 -0.095994 -0.000670486 -2.46268e-06 -2.42101e-06 -3.18183e-06 7.3462e-06 9.30722e-10 9.68036e-09
5092 2 0.002 0.100529 -0.0980197 -0.000829537 -2.09029e-06 -2.07699e-06 -6.78857e-06 7.16918e-06 7.36822e-09 1.14635e-08
5093 2 0.002 0.100546 -0.0940314 -0.00116759 -1.6669e-06 -1.96764e-06 5.63847e-06 1.01914e-05 3.46549e-09 2.22379e-08
5154 2 0.002 0.104031 -0.0960885 -0.00135824 -1.5024e-06 -1.30738e-06 -4.16249e-06 1.37011e-05 4.01087e-08 4.16949e-08
5214 2 0.002 0.107527 -0.0941438 -0.00170233 -8.06169e-07 -7.94049e-07 -5.55153e-06 2.50546e-05 4.07824e-08 5.03149e-07
5029 2 0.002 0.0970438 -0.0999899 -0.000356262 -3.57112e-07 -7.14336e-07 1.03165e-05 1.62251e-06 2.42129e-09 9.05561e-09
68 1 0.015 0.109076 -0.0977216 -0.00300511 7.23192e-05 8.64823e-05 2.89692e-05 -5.99538e-06 0 9.99637e-07
5090 2 0.002 0.100466 -0.105998 -7.32035e-05 -1.56676e-08 -3.83591e-07 4.01584e-08 -9.06712e-08 2.48119e-09 1.6378e-09
5028 2 0.002 0.0970213 -0.10399 -5.05369e-05 -3.22232e-07 -8.07333e-07 1.01764e-06 5.66728e-07 1.62005e-09 5.64902e-09
5271 2 0.002 0.110947 -0.0960872 -0.000956994 -1.94569e-06 8.3869e-07 7.52805e-06 6.47818e-06 6.88829e-08 1.57002e-07
638 2 0.002 -0.110812 -0.0919859 -0.000196957 1.51109e-06 -7.41775e-07 1.83272e-06 8.84055e-06 1.39007e-09 1.96111e-08
639 2 0.002 -0.110803 -0.0879821 -0.000132244 1.67221e-06 -1.15965e-06 -1.29607e-06 4.66982e-06 1.33007e-09 2.0574e-08
582 2 0.002 -0.114291 -0.0899936 -1.42125e-05 6.85887e-07 -4.37444e-07 -2.56777e-06 6.45726e-06 1.59448e-09 8.41197e-09
881 2 0.002 -0.0968033 -0.0839253 -0.00135036 3.18069e-06 -7.20747e-07 1.12869e-06 1.89339e-05 2.84542e-08 7.27639e-08
880 2 0.002 -0.0968134 -0.0879215 -0.00160938 3.67463e-06 -3.83716e-07 -6.01948e-06 1.9687e-05 4.06045e-08 8.2085e-08
696 2 0.002 -0.107315 -0.0899713 -0.000464123 2.21686e-06 -1.10908e-06 -3.37001e-06 3.44652e-06 8.27924e-10 2.51774e-08
697 2 0.002 -0.107306 -0.0859744 -0.000364296 2.27344e-06 -1.41615e-06 -2.59232e-06 2.64275e-06 6.8e-10 2.72844e-08
758 2 0.002 -0.103812 -0.0799723 -0.000366648 1.29845e-06 -7.47131e-07 -3.34594e-06 1.04961e-05 1.98092e-09 2.24492e-08