ITEM: TIMESTEP
5000
ITEM: NUMBER OF ATOMS
112
ITEM: BOX BOUNDS ff ff ff
-2.5000000000000000e-01 2.5000000000000000e-01
-2.5000000000000000e-01 2.5000000000000000e-01
-1.0000000000000001e-01 1.0000000000000001e-01
ITEM: ATOMS id type radius x y z fx fy fz v_pressure c_bendingE c_stretchingE
98 1 0.015 -0.012611 -0.146921 0 2.00489e-08 -2.17246e-08 0 -0.0003014 0 0
51 1 0.015 0.0146965 -0.144057 0 6.87789e-08 -9.15676e-08 0 -0.0001952 0 0
93 1 0.015 0.0423388 -0.141293 0 1.95745e-07 6.18552e-08 0 -0.000366964 0 0
56 1 0.015 -0.0673318 -0.128959 0 -2.09994e-07 4.00849e-08 0 -9.54257e-05 0 0
61 1 0.015 -0.0407456 -0.140164 0 -1.77065e-07 -4.54338e-08 0 -0.00011546 0 0
76 1 0.015 0.066746 -0.129905 0 2.79054e-07 8.64902e-08 0 -0.000314279 0 0
9 1 0.015 -0.0920904 -0.114434 0 -1.87258e-07 1.21386e-07 0 -0.000216371 0 0
24 1 0.015 -0.0442147 -0.112174 0 -2.28303e-07 -8.01613e-08 0 -0.00018844 0 0
103 1 0.015 -0.018856 -0.121981 0 -2.75364e-07 -1.67607e-07 0 -0.000337606 0 0
20 1 0.015 0.0290485 -0.119077 0 -9.90871e-08 -2.04039e-07 0 -0.00028838 0 0
43 1 0.015 0.0893119 -0.115241 0 3.23554e-07 1.62331e-07 0 -0.000284525 0 0
88 1 0.015 -0.0686827 -0.100016 0 -1.63983e-07 1.96562e-08 0 -0.000194666 0 0
92 1 0.015 -0.0205916 -0.0952416 0 -2.17336e-07 -2.70471e-07 0 -0.000225602 0 0
47 1 0.015 0.00451996 -0.108114 0 -1.89463e-07 -4.08119e-07 0 -0.000226567 0 0
31 1 0.015 0.0540288 -0.1053 0 -1.15028e-07 -2.57733e-07 0 -0.000143413 0 0
68 1 0.015 0.109004 -0.0965491 0 3.1377e-07 3.17687e-07 0 -0.000246334 0 0
37 1 0.015 -0.119947 -0.0833922 0 -2.28263e-08 -4.09026e-08 0 -0.000317606 0 0
90 1 0.015 -0.0934038 -0.0870716 0 -5.69252e-08 1.19215e-07 0 -0.000259229 0 0
33 1 0.015 -0.0455638 -0.084106 0 -1.77473e-07 -1.01416e-07 0 -0.000204206 0 0
46 1 0.015 0.00295566 -0.0801141 0 -2.55951e-07 -4.35905e-07 0 -0.000194055 0 0
45 1 0.015 0.0282832 -0.092071 0 -2.15101e-07 -3.42313e-07 0 -0.000197104 0 0
53 1 0.015 0.0780737 -0.0894968 0 -8.32881e-08 -1.80292e-07 0 -0.000114838 0 0
96 1 0.015 -0.0704071 -0.0717297 0 -6.93046e-08 5.40514e-08 0 -0.000196078 0 0
29 1 0.015 -0.0220032 -0.0678105 0 -2.45927e-07 -3.40449e-07 0 -0.000214099 0 0
22 1 0.015 0.0259016 -0.0644483 0 -3.39039e-07 -4.6418e-07 0 -0.000197805 0 0
52 1 0.015 0.0517256 -0.0773454 0 -2.31927e-07 -3.89051e-07 0 -0.000165029 0 0
112 1 0.015 0.0992235 -0.0702141 0 -8.59922e-08 8.75102e-08 0 -0.000232756 0 0
91 1 0.015 0.125987 -0.0747183 0 1.39094e-07 6.02844e-07 0 -0.000304246 0 0
99 1 0.015 -0.134745 -0.0601888 0 3.77837e-08 -2.58731e-08 0 -0.000298205 0 0
28 1 0.015 -0.0956311 -0.059159 0 5.63799e-08 1.03588e-07 0 -0.000198793 0 0
109 1 0.015 -0.0468046 -0.0564459 0 -1.58527e-07 -4.97979e-08 0 -0.00022448 0 0
27 1 0.015 0.000949928 -0.0518749 0 -3.11874e-07 -4.75322e-07 0 -0.000199975 0 0
30 1 0.015 0.0482812 -0.0492172 0 -4.43083e-07 -5.36301e-07 0 -0.000203662 0 0
25 1 0.015 0.0739856 -0.0612019 0 -2.78217e-07 -3.98361e-07 0 -0.000246378 0 0
10 1 0.015 0.136619 -0.049973 0 5.49133e-07 6.02931e-07 0 -0.000290371 0 0
78 1 0.015 -0.142653 -0.0317695 0 3.58008e-08 -8.73038e-08 0 -0.00011683 0 0
41 1 0.015 -0.1168 -0.0421952 0 7.08494e-08 -5.964e-09 0 -0.00039103 0 0
16 1 0.015 -0.0714219 -0.0438986 0 -9.06756e-09 1.42508e-07 0 -0.000197374 0 0
63 1 0.015 -0.023463 -0.0398286 0 -2.43176e-07 -4.1115e-07 0 -0.000271584 0 0
8 1 0.015 0.0230295 -0.0359985 0 -4.21859e-07 -5.16201e-07 0 -0.000183073 0 0
107 1 0.015 0.0710957 -0.034296 0 -6.3383e-07 -5.82173e-07 0 -0.000281286 0 0
106 1 0.015 0.108956 -0.043842 0 7.58075e-07 -2.10022e-07 0 -0.000139602 0 0
44 1 0.015 -0.0941398 -0.0291249 0 4.05243e-08 1.94562e-07 0 -0.000283691 0 0
84 1 0.015 -0.04746 -0.0290654 0 1.18297e-08 8.63678e-08 0 -0.000329058 0 0
110 1 0.015 -0.00229829 -0.0226051 0 -3.98802e-07 -4.87927e-07 0 -0.000169007 0 0
75 1 0.015 0.0460315 -0.0211476 0 -5.08763e-07 -5.56658e-07 0 -0.000198915 0 0
87 1 0.015 0.0936727 -0.0202868 0 -3.62824e-07 -1.26697e-06 0 -0.000285927 0 0
1 1 0.015 0.119954 -0.0167887 0 -4.93808e-07 6.15872e-07 0 -0.000288977 0 0
85 1 0.015 0.145149 -0.0245505 0 -1.23275e-07 9.27221e-07 0 -0.000377147 0 0
48 1 0.015 -0.145204 -0.00311443 0 -1.51111e-08 -1.12994e-07 0 -9.5605e-05 0 0
73 1 0.015 -0.11948 -0.0152983 0 3.7112e-08 -2.83271e-08 0 -0.000193034 0 0
17 1 0.015 -0.0945688 -0.00158819 0 4.40517e-08 2.18799e-07 0 -0.00019626 0 0
2 1 0.015 -0.0703874 -0.0153391 0 8.58623e-08 1.97462e-07 0 -0.000230281 0 0
34 1 0.015 -0.044577 -0.00230097 0 3.29573e-07 1.07394e-07 0 -0.000228205 0 0
58 1 0.015 0.0209306 -0.00777454 0 -4.87248e-07 -5.67677e-07 0 -0.000209205 0 0
60 1 0.015 0.0693269 -0.00648152 0 -3.61833e-07 -7.82856e-07 0 -0.000215874 0 0
54 1 0.015 -0.119255 0.0117536 0 -1.71098e-07 -8.23572e-08 0 -0.000176861 0 0
26 1 0.015 -0.068869 0.0118192 0 3.3291e-07 1.51758e-07 0 -0.000204716 0 0
42 1 0.015 -0.0172746 0.00139487 0 4.52103e-07 -8.57522e-09 0 -0.000169445 0 0
95 1 0.015 0.0443178 0.00680329 0 -4.45876e-07 -6.66279e-07 0 -0.000231387 0 0
70 1 0.015 0.093404 0.00750178 0 -1.54674e-07 -1.32403e-06 0 -0.0002105 0 0
18 1 0.015 0.120618 0.0108675 0 -3.56342e-07 7.21524e-07 0 -0.000245088 0 0
23 1 0.015 0.146378 0.00258515 0 -1.33076e-07 9.69308e-07 0 -0.000287955 0 0
36 1 0.015 -0.143598 0.0251396 0 -8.62022e-08 -8.70672e-08 0 -0.000199348 0 0
19 1 0.015 -0.0926514 0.0255537 0 3.99702e-07 1.78836e-07 0 -0.000215738 0 0
72 1 0.015 -0.044137 0.0251522 0 3.95045e-07 1.96831e-07 0 -0.000233551 0 0
5 1 0.015 -0.0175779 0.0305165 0 5.29917e-07 -1.26217e-07 0 -0.000171733 0 0
94 1 0.015 0.00658693 0.0158253 0 5.80769e-07 -7.58547e-09 0 -0.000191405 0 0
102 1 0.015 0.0303995 0.0302969 0 6.59754e-07 -3.89377e-08 0 -0.000224696 0 0
77 1 0.015 0.0678801 0.0209803 0 -3.06223e-07 -8.84523e-07 0 -0.000250371 0 0
81 1 0.015 0.143128 0.0302279 0 -2.21867e-07 9.27178e-07 0 -0.000157164 0 0
3 1 0.015 -0.115951 0.0387043 0 2.05447e-07 -9.45526e-08 0 -0.000298581 0 0
69 1 0.015 -0.068049 0.0396319 0 3.74881e-07 1.91645e-07 0 -0.00019997 0 0
101 1 0.015 0.00652455 0.0442697 0 6.34051e-07 -8.68212e-08 0 -0.00018299 0 0
80 1 0.015 0.0539395 0.0444252 0 7.10574e-07 -2.03278e-07 0 -0.000260559 0 0
7 1 0.015 0.0909932 0.0349663 0 -6.9655e-08 -1.33348e-06 0 -0.000299829 0 0
100 1 0.015 0.117059 0.037488 0 -2.82217e-07 7.51232e-07 0 -0.000358267 0 0
83 1 0.015 -0.138309 0.0524242 0 5.60893e-08 -1.16442e-07 0 -0.000354842 0 0
15 1 0.015 -0.0917425 0.0535752 0 2.26523e-07 7.66879e-08 0 -0.000204202 0 0
67 1 0.015 -0.0437527 0.0531573 0 3.7419e-07 2.81155e-07 0 -0.000214762 0 0
65 1 0.015 -0.0175549 0.0593277 0 5.73271e-07 -2.47715e-07 0 -0.000195446 0 0
14 1 0.015 0.0309647 0.0589675 0 7.51681e-07 -7.39489e-08 0 -0.000177999 0 0
11 1 0.015 0.0771911 0.0576038 0 8.22364e-07 -6.21391e-07 0 -0.00036057 0 0
57 1 0.015 0.103915 0.0617169 0 2.62016e-07 7.63649e-07 0 -0.000193923 0 0
38 1 0.015 0.134466 0.0579264 0 -3.60797e-07 8.05225e-07 0 -0.000223145 0 0
82 1 0.015 -0.115664 0.0667282 0 9.61403e-08 -1.07712e-07 0 -0.000281502 0 0
12 1 0.015 -0.0675577 0.0679397 0 2.43217e-07 1.69127e-07 0 -0.000192768 0 0
49 1 0.015 0.00680022 0.0720025 0 6.55394e-07 -1.34308e-07 0 -0.000212643 0 0
62 1 0.015 0.0557069 0.0737374 0 9.71169e-07 -1.79299e-07 0 -0.000188974 0 0
105 1 0.015 -0.115129 0.0929027 0 -2.17405e-08 -8.10648e-08 0 -0.000389484 0 0
104 1 0.015 -0.090891 0.081783 0 5.85769e-08 8.64247e-09 0 -0.000205643 0 0
50 1 0.015 -0.0441312 0.081736 0 2.87238e-07 2.76076e-07 0 -0.000205229 0 0
4 1 0.015 -0.0178953 0.0878844 0 5.51388e-07 -3.60557e-07 0 -0.000185259 0 0
89 1 0.015 0.0319145 0.0871695 0 7.92511e-07 -1.41329e-07 0 -0.000198133 0 0
13 1 0.015 0.0843147 0.0839253 0 -5.82732e-07 -5.40113e-08 0 -0.000193385 0 0
55 1 0.015 0.121299 0.0822966 0 -2.63898e-07 8.12343e-07 0 -0.000304742 0 0
40 1 0.015 -0.0679437 0.0977194 0 3.04772e-08 2.3155e-08 0 -0.000101702 0 0
97 1 0.015 0.00700793 0.0984647 0 6.07019e-07 -1.14478e-07 0 -0.000351381 0 0
74 1 0.015 0.0621191 0.101209 0 -4.15942e-07 1.71039e-07 0 -0.000202204 0 0
64 1 0.015 0.103904 0.103057 0 -6.34046e-07 3.29547e-07 0 -0.00031304 0 0
21 1 0.015 -0.094266 0.110478 0 -2.87477e-08 -2.35914e-08 0 -0.00018721 0 0
32 1 0.015 -0.0424663 0.110082 0 -1.26732e-07 2.09588e-07 0 -0.000159075 0 0
6 1 0.015 -0.0151285 0.116595 0 -5.1076e-08 -4.12251e-07 0 -0.000137636 0 0
86 1 0.015 0.0124482 0.123363 0 -4.11209e-07 9.63536e-08 0 -0.000374956 0 0
66 1 0.015 0.0380426 0.114363 0 -4.46077e-07 9.24884e-08 0 -0.000219954 0 0
71 1 0.015 0.0828134 0.120042 0 -4.90014e-07 3.18659e-07 0 -0.000271804 0 0
111 1 0.015 -0.072135 0.12615 0 -2.47735e-08 -1.00683e-08 0 -0.000258531 0 0
108 1 0.015 -0.047842 0.137757 0 -8.15289e-08 9.1602e-08 0 -0.00029793 0 0
59 1 0.015 0.0588727 0.133211 0 -4.43503e-07 1.62624e-07 0 -0.000232041 0 0
39 1 0.015 -0.0217765 0.143983 0 -5.66391e-08 -2.0514e-07 0 -0.000300058 0 0
35 1 0.015 0.00486355 0.147651 0 -1.87025e-07 9.64841e-08 0 -0.000370976 0 0
79 1 0.015 0.032688 0.142467 0 -3.40357e-07 7.95198e-08 0 -0.000176838 0 0
