ITEM: TIMESTEP
15000
ITEM: NUMBER OF ATOMS
112
ITEM: BOX BOUNDS ff ff ff
-2.5000000000000000e-01 2.5000000000000000e-01
-2.5000000000000000e-01 2.5000000000000000e-01
-1.0000000000000001e-01 1.0000000000000001e-01
ITEM: ATOMS id type radius x y z fx fy fz v_pressure c_bendingE c_stretchingE
98 1 0.015 -0.0129105 -0.146978 0 3.94083e-10 1.84249e-11 0 -0.000318189 0 0
51 1 0.015 0.0142456 -0.143775 0 4.40973e-10 -1.46045e-10 0 -0.000200841 0 0
93 1 0.015 0.0417067 -0.141616 0 4.89028e-10 2.50204e-10 0 -0.000387379 0 0
56 1 0.015 -0.0672583 -0.128952 0 2.66021e-10 -1.83465e-10 0 -9.6544e-05 0 0
61 1 0.015 -0.0407622 -0.140111 0 3.04199e-10 -1.03726e-10 0 -0.000121424 0 0
76 1 0.015 0.0660285 -0.130254 0 4.85109e-10 2.92271e-10 0 -0.000319686 0 0
9 1 0.015 -0.0920051 -0.114439 0 2.38626e-10 -3.06236e-10 0 -0.000212478 0 0
24 1 0.015 -0.0439872 -0.112165 0 8.47147e-11 -8.7533e-11 0 -0.00018665 0 0
103 1 0.015 -0.0185964 -0.121937 0 1.09402e-10 -3.96377e-12 0 -0.00033118 0 0
20 1 0.015 0.0294317 -0.118909 0 -1.42358e-10 1.64399e-11 0 -0.000283161 0 0
43 1 0.015 0.0886122 -0.115672 0 4.34381e-10 3.31868e-10 0 -0.000281542 0 0
88 1 0.015 -0.068471 -0.100061 0 2.32744e-11 -1.66203e-10 0 -0.000193127 0 0
92 1 0.015 -0.0202778 -0.0951995 0 -8.56093e-11 3.5027e-11 0 -0.00022332 0 0
47 1 0.015 0.00484418 -0.108042 0 -5.94448e-11 1.72163e-10 0 -0.000221609 0 0
31 1 0.015 0.0544117 -0.10509 0 -2.00962e-10 4.3245e-11 0 -0.000143561 0 0
68 1 0.015 0.108333 -0.0970288 0 4.05302e-10 2.92511e-10 0 -0.000240654 0 0
37 1 0.015 -0.119702 -0.0837907 0 -1.24668e-10 2.63731e-10 0 -0.000318048 0 0
90 1 0.015 -0.093124 -0.0870633 0 -1.75739e-10 -3.76289e-10 0 -0.000262459 0 0
33 1 0.015 -0.0452792 -0.084127 0 -1.25538e-10 -8.86239e-11 0 -0.000202738 0 0
46 1 0.015 0.00329013 -0.0800159 0 -1.79378e-10 1.57803e-10 0 -0.000191211 0 0
45 1 0.015 0.0286335 -0.0919032 0 -1.61561e-10 1.08112e-10 0 -0.000194598 0 0
53 1 0.015 0.0784106 -0.0893739 0 -2.46196e-10 7.81609e-11 0 -0.00011315 0 0
96 1 0.015 -0.0701129 -0.0717774 0 -2.74366e-10 -2.27757e-10 0 -0.000197443 0 0
29 1 0.015 -0.0216989 -0.0677721 0 -1.98898e-10 6.09941e-11 0 -0.000212577 0 0
22 1 0.015 0.0262377 -0.0642604 0 -2.6958e-10 1.64323e-10 0 -0.00019458 0 0
52 1 0.015 0.0520723 -0.0771162 0 -2.22032e-10 1.15886e-10 0 -0.000162298 0 0
112 1 0.015 0.0993922 -0.0701642 0 -1.37395e-10 -7.6257e-12 0 -0.000240347 0 0
91 1 0.015 0.12573 -0.0756161 0 1.28671e-10 4.85081e-10 0 -0.000324457 0 0
99 1 0.015 -0.134547 -0.0606009 0 -1.6354e-10 2.1329e-10 0 -0.0002956 0 0
28 1 0.015 -0.0953497 -0.0591955 0 -4.15927e-10 -3.32061e-10 0 -0.000162231 0 0
109 1 0.015 -0.0465224 -0.0564658 0 -2.86303e-10 -1.78226e-10 0 -0.000224362 0 0
27 1 0.015 0.00123571 -0.0517677 0 -2.70907e-10 1.99047e-10 0 -0.000197884 0 0
30 1 0.015 0.0486104 -0.0489344 0 -3.31935e-10 1.18578e-10 0 -0.000199507 0 0
25 1 0.015 0.0742821 -0.0609109 0 -1.91706e-10 7.9554e-11 0 -0.000242022 0 0
10 1 0.015 0.136104 -0.0508439 0 2.4097e-10 4.3292e-10 0 -0.000288529 0 0
78 1 0.015 -0.142575 -0.0321486 0 -9.95979e-11 2.50315e-10 0 -0.000115501 0 0
41 1 0.015 -0.116713 -0.0424882 0 -1.53647e-10 9.80009e-11 0 -0.000391052 0 0
16 1 0.015 -0.0711721 -0.0439784 0 -4.10636e-10 -2.81112e-10 0 -0.000200334 0 0
63 1 0.015 -0.0232264 -0.039787 0 -2.87119e-10 7.93137e-11 0 -0.000270261 0 0
8 1 0.015 0.0232838 -0.0358094 0 -3.593e-10 2.65198e-10 0 -0.000180865 0 0
107 1 0.015 0.0714555 -0.0339168 0 -4.13683e-10 3.11567e-11 0 -0.000269597 0 0
106 1 0.015 0.108532 -0.0435929 0 1.56314e-10 -1.29781e-10 0 -0.000134768 0 0
44 1 0.015 -0.0940495 -0.0293887 0 -2.15394e-10 -4.58289e-11 0 -0.000234703 0 0
84 1 0.015 -0.0472715 -0.0290851 0 -4.38207e-10 -3.38118e-10 0 -0.000328116 0 0
110 1 0.015 -0.00210924 -0.0225018 0 -4.1337e-10 3.66592e-10 0 -0.000168388 0 0
75 1 0.015 0.0462455 -0.0208757 0 -3.28383e-10 1.78331e-10 0 -0.000195692 0 0
87 1 0.015 0.0938817 -0.0195232 0 -2.12216e-10 -3.81896e-10 0 -0.000283729 0 0
1 1 0.015 0.120254 -0.0170068 0 -2.09279e-10 3.62724e-11 0 -0.000302254 0 0
85 1 0.015 0.145063 -0.0255968 0 2.94708e-11 4.82753e-10 0 -0.000380338 0 0
48 1 0.015 -0.145197 -0.00347228 0 -2.47734e-11 3.03009e-10 0 -9.42535e-05 0 0
73 1 0.015 -0.119453 -0.0155961 0 -1.19425e-10 1.1837e-10 0 -0.000192201 0 0
17 1 0.015 -0.0946045 -0.00184679 0 -1.41757e-10 -1.5591e-11 0 -0.000196854 0 0
2 1 0.015 -0.0703471 -0.0154976 0 -2.70233e-10 -1.95545e-10 0 -0.000231092 0 0
34 1 0.015 -0.0446733 -0.00232486 0 -2.37045e-10 -4.41473e-10 0 -0.000233102 0 0
58 1 0.015 0.0210431 -0.00758046 0 -2.83028e-10 3.43797e-10 0 -0.000207982 0 0
60 1 0.015 0.0694073 -0.00604382 0 -1.48085e-10 -4.31873e-11 0 -0.000214371 0 0
54 1 0.015 -0.119295 0.0114895 0 -5.57401e-11 1.26371e-10 0 -0.000175558 0 0
26 1 0.015 -0.0690413 0.0116658 0 -1.29367e-10 -2.0475e-10 0 -0.000207082 0 0
42 1 0.015 -0.0173875 0.00132924 0 -4.16452e-10 5.30642e-10 0 -0.000169077 0 0
95 1 0.015 0.0443131 0.00709451 0 -7.17267e-11 1.89319e-10 0 -0.000232302 0 0
70 1 0.015 0.093344 0.00822515 0 1.64955e-11 -3.73959e-10 0 -0.000215014 0 0
18 1 0.015 0.120666 0.0105393 0 -1.63534e-11 8.20062e-11 0 -0.000249739 0 0
23 1 0.015 0.146304 0.00162297 0 4.59113e-11 3.9031e-10 0 -0.000273769 0 0
36 1 0.015 -0.143661 0.0248092 0 6.28425e-11 3.38471e-10 0 -0.000197917 0 0
19 1 0.015 -0.0928619 0.0253385 0 -3.34762e-11 -1.43507e-11 0 -0.000215483 0 0
72 1 0.015 -0.0443858 0.0250674 0 -4.44976e-11 -4.8889e-10 0 -0.000239098 0 0
5 1 0.015 -0.0178588 0.0305131 0 -3.14439e-10 6.68209e-10 0 -0.000169204 0 0
94 1 0.015 0.00637303 0.0158732 0 -4.33238e-10 3.28355e-10 0 -0.000189523 0 0
102 1 0.015 0.0301115 0.0304509 0 -3.38042e-10 4.8817e-11 0 -0.000222344 0 0
77 1 0.015 0.0677218 0.0214308 0 1.2371e-10 -5.45608e-11 0 -0.00025292 0 0
81 1 0.015 0.143177 0.0293967 0 1.84169e-11 2.74558e-10 0 -0.000150715 0 0
3 1 0.015 -0.116121 0.0385085 0 3.02448e-11 1.20163e-10 0 -0.000298478 0 0
69 1 0.015 -0.0683433 0.0394716 0 7.11417e-11 -2.08979e-10 0 -0.00020198 0 0
101 1 0.015 0.00615299 0.0443452 0 -2.05637e-10 3.33616e-10 0 -0.000181863 0 0
80 1 0.015 0.0535812 0.0447448 0 -1.69922e-10 -2.25592e-10 0 -0.000259649 0 0
7 1 0.015 0.0907202 0.0355601 0 2.51097e-10 -3.23588e-10 0 -0.000310767 0 0
100 1 0.015 0.116951 0.0371655 0 1.36763e-10 8.50403e-11 0 -0.000339696 0 0
83 1 0.015 -0.138455 0.0521306 0 1.38623e-10 3.46053e-10 0 -0.000356873 0 0
15 1 0.015 -0.0920237 0.0534395 0 1.7088e-10 -2.01219e-11 0 -0.000202666 0 0
67 1 0.015 -0.0440655 0.0529927 0 1.61952e-10 -4.58375e-10 0 -0.000220647 0 0
65 1 0.015 -0.01797 0.0594204 0 -1.13925e-10 6.91918e-10 0 -0.000192829 0 0
14 1 0.015 0.0305116 0.0591243 0 -3.30212e-11 3.04907e-11 0 -0.00017902 0 0
11 1 0.015 0.0767806 0.0580829 0 1.92172e-11 -4.46306e-10 0 -0.000359229 0 0
57 1 0.015 0.103732 0.0616247 0 1.94449e-11 -9.09176e-11 0 -0.000192887 0 0
38 1 0.015 0.134883 0.0570901 0 -9.00033e-11 2.53192e-10 0 -0.000230924 0 0
82 1 0.015 -0.115928 0.0666558 0 2.83742e-10 9.8061e-11 0 -0.000273213 0 0
12 1 0.015 -0.0678341 0.067761 0 2.24688e-10 -1.75688e-10 0 -0.000196332 0 0
49 1 0.015 0.00631328 0.0720912 0 6.70076e-11 2.66229e-10 0 -0.000214392 0 0
62 1 0.015 0.0551635 0.0740402 0 1.32259e-10 -2.59693e-10 0 -0.000190803 0 0
105 1 0.015 -0.115155 0.0928836 0 1.44253e-10 8.43906e-11 0 -0.000387915 0 0
104 1 0.015 -0.0910365 0.0816927 0 2.67462e-10 4.70191e-11 0 -0.000204381 0 0
50 1 0.015 -0.0444436 0.0815374 0 2.8948e-10 -3.41001e-10 0 -0.000209886 0 0
4 1 0.015 -0.0183768 0.0880844 0 7.98439e-11 6.13646e-10 0 -0.000184474 0 0
89 1 0.015 0.0313418 0.0873216 0 2.43928e-10 7.23954e-12 0 -0.000203652 0 0
13 1 0.015 0.0844912 0.084122 0 9.87115e-11 -3.57845e-10 0 -0.000206997 0 0
55 1 0.015 0.121868 0.0815034 0 -1.75493e-10 1.7468e-10 0 -0.000305905 0 0
40 1 0.015 -0.0680657 0.0976743 0 3.4608e-10 -3.43731e-13 0 -0.000100919 0 0
97 1 0.015 0.00649751 0.0985347 0 2.76163e-10 1.72213e-10 0 -0.000362718 0 0
74 1 0.015 0.062364 0.101321 0 1.58928e-10 -2.738e-10 0 -0.000211187 0 0
64 1 0.015 0.10464 0.102455 0 -1.99114e-10 1.105e-10 0 -0.000312575 0 0
21 1 0.015 -0.0942524 0.110489 0 1.51926e-10 1.58587e-11 0 -0.000181775 0 0
32 1 0.015 -0.0424756 0.109918 0 4.91349e-10 -2.20114e-10 0 -0.000150887 0 0
6 1 0.015 -0.0151807 0.116842 0 3.74749e-10 3.7222e-10 0 -0.000138476 0 0
86 1 0.015 0.0127111 0.123263 0 3.36908e-10 8.51146e-11 0 -0.000365228 0 0
66 1 0.015 0.0383088 0.1143 0 2.64264e-10 -1.298e-11 0 -0.000224888 0 0
71 1 0.015 0.0835143 0.119567 0 -1.23213e-10 8.58771e-11 0 -0.00026048 0 0
111 1 0.015 -0.0720171 0.126175 0 4.98711e-11 1.89777e-11 0 -0.000247483 0 0
108 1 0.015 -0.0475992 0.137734 0 5.22179e-11 -1.26045e-10 0 -0.000284224 0 0
59 1 0.015 0.059466 0.132869 0 6.36521e-12 1.06859e-10 0 -0.000213223 0 0
39 1 0.015 -0.0214883 0.144159 0 -3.77889e-11 1.31007e-10 0 -0.000297035 0 0
35 1 0.015 0.00527154 0.147608 0 -1.59872e-11 -2.37234e-11 0 -0.000361753 0 0
79 1 0.015 0.033168 0.142326 0 7.20851e-11 5.69361e-11 0 -0.000166765 0 0
