ITEM: TIMESTEP
550000
ITEM: NUMBER OF ATOMS
5843
ITEM: BOX BOUNDS ff ff ff
-2.5000000000000000e-01 2.5000000000000000e-01
-2.5000000000000000e-01 2.5000000000000000e-01
-1.0000000000000001e-01 1.0000000000000001e-01
ITEM: ATOMS id type radius x y z fx fy fz v_pressure c_bendingE c_stretchingE
98 1 0.015 -0.0134901 -0.149042 -0.00140557 1.763e-11 4.88462e-12 2.17e-12 -6.24966e-06 0 3.42969e-06
2624 2 0.002 -0.0138853 -0.144055 -0.000358044 4.55731e-14 7.15213e-14 -1.99232e-13 7.13269e-06 3.22345e-08 2.06927e-06
2703 2 0.002 -0.0104416 -0.146058 -0.00049843 9.87883e-14 1.00953e-13 -3.85279e-13 5.53569e-06 4.06024e-08 1.44115e-06
2783 2 0.002 -0.00698212 -0.143995 -1.42614e-05 2.11927e-13 2.49508e-13 -1.79702e-12 5.16043e-06 1.62586e-08 2.60393e-08
3655 2 0.002 0.0311726 -0.141979 -6.13029e-05 2.14421e-13 -3.5392e-14 -1.4466e-13 5.28477e-06 1.54671e-09 5.95286e-09
3498 2 0.002 0.0242397 -0.14197 -7.29676e-05 1.22865e-13 -4.66683e-14 -7.22872e-13 6.18644e-06 4.96711e-10 8.63338e-09
3576 2 0.002 0.0277082 -0.143981 -4.86199e-05 8.26769e-14 -1.48884e-14 4.38537e-14 2.51382e-06 4.34402e-10 5.19495e-09
3419 2 0.002 0.0207788 -0.143979 1.08518e-05 -2.89929e-14 7.14267e-14 2.05758e-12 5.7069e-06 4.26465e-10 6.44544e-09
1477 2 0.002 -0.0658403 -0.130026 -0.000480754 -2.0378e-15 -2.81832e-13 -2.24366e-12 7.85304e-07 1.12496e-08 4.06797e-08
1478 2 0.002 -0.0658497 -0.126045 -0.000692604 8.45941e-15 -8.71606e-14 -5.78746e-13 3.95501e-06 6.82573e-09 3.80727e-07
1406 2 0.002 -0.069297 -0.128016 -0.000358665 2.26757e-13 1.24096e-14 1.48595e-12 1.2096e-07 7.90197e-09 1.11643e-08
56 1 0.015 -0.0677759 -0.129685 -0.00108316 6.27738e-12 -5.26834e-12 -3.76572e-13 -2.76701e-06 0 4.10192e-07
1336 2 0.002 -0.0727451 -0.125997 -0.000124188 -1.00603e-14 5.12518e-14 -5.96651e-13 1.68554e-06 1.74195e-09 4.99059e-10
1849 2 0.002 -0.0484702 -0.127982 -0.000551326 1.63033e-13 -2.28217e-13 4.6293e-13 2.18973e-06 7.64988e-10 3.29745e-09
1774 2 0.002 -0.0519335 -0.125983 -0.000766238 1.84731e-13 -3.49442e-13 2.2755e-14 2.37358e-06 7.05751e-10 4.06911e-09
1848 2 0.002 -0.0484855 -0.131984 -0.000245616 1.47833e-13 -2.01479e-13 -1.83411e-13 3.21991e-06 7.24676e-10 2.03496e-09
1550 2 0.002 -0.0623624 -0.12801 -0.000621261 1.86489e-14 -7.35592e-14 1.29769e-12 4.33543e-06 5.1446e-09 4.55061e-09
1624 2 0.002 -0.058884 -0.125994 -0.000709734 7.14889e-14 -2.90503e-13 -9.20504e-13 4.68747e-06 1.67206e-09 4.72217e-09
1623 2 0.002 -0.0588865 -0.129994 -0.000474351 6.98389e-14 -1.76962e-13 -3.38147e-13 3.69006e-06 7.88765e-10 2.54869e-09
1622 2 0.002 -0.0588878 -0.133993 -0.000178486 1.30197e-14 -1.11189e-13 -4.50027e-13 3.00596e-06 1.04024e-09 1.76829e-09
1772 2 0.002 -0.0519553 -0.133989 -0.000192123 8.96396e-14 -1.50594e-13 -1.7147e-13 1.55769e-06 5.99997e-10 2.29002e-09
1697 2 0.002 -0.0554182 -0.131988 -0.000335482 8.74881e-14 -1.3393e-13 4.66801e-13 1.67012e-06 3.21203e-10 2.08497e-09
1698 2 0.002 -0.0554117 -0.127987 -0.00061766 1.17689e-13 -2.73153e-13 1.22827e-13 4.17114e-06 4.53036e-10 3.26454e-09
1773 2 0.002 -0.0519456 -0.129984 -0.000462077 1.50806e-13 -2.56524e-13 -2.81689e-13 1.9128e-06 2.70592e-10 2.74075e-09
1549 2 0.002 -0.0623573 -0.132001 -0.000291941 2.49689e-14 -2.81825e-14 6.65492e-13 3.11265e-06 4.10178e-09 1.78084e-09
1696 2 0.002 -0.0554229 -0.135992 -9.74752e-05 1.89052e-14 -6.4148e-14 3.89118e-14 1.29933e-06 6.17372e-10 1.33599e-09
1847 2 0.002 -0.0484959 -0.135992 -4.30229e-05 8.08399e-14 -1.0297e-13 3.76984e-13 2.27247e-06 6.91588e-10 1.23424e-09
1925 2 0.002 -0.0449945 -0.125983 -0.000589371 2.12973e-13 -1.78799e-13 -1.22854e-13 2.69215e-06 1.72111e-09 5.12172e-09
2001 2 0.002 -0.0415463 -0.127986 -0.000131133 1.02479e-13 -4.07447e-14 2.16844e-14 2.52569e-06 1.48201e-09 4.7829e-09
1924 2 0.002 -0.0450144 -0.129984 -0.000230982 1.57642e-13 -1.71412e-13 -1.43348e-13 3.99808e-06 1.03006e-09 2.98589e-09
1923 2 0.002 -0.0450314 -0.13399 2.66689e-05 7.93262e-14 -1.15279e-13 2.78842e-13 2.63706e-06 1.59096e-09 1.81616e-09
3502 2 0.002 0.0242105 -0.125881 -0.00105686 5.35787e-13 -2.67065e-13 -1.09271e-12 1.17704e-05 5.15743e-09 2.19246e-08
3344 2 0.002 0.0172902 -0.12588 -0.000183454 6.8211e-13 1.92756e-13 4.0189e-13 9.92806e-06 1.80381e-09 1.71236e-08
3422 2 0.002 0.0207591 -0.131906 -0.00033145 7.51021e-13 3.94471e-14 2.40147e-13 4.01096e-06 8.12685e-10 1.04055e-08
3423 2 0.002 0.020753 -0.127885 -0.000540104 7.29747e-13 -1.4799e-14 -9.74456e-14 9.62779e-06 1.72251e-09 1.45687e-08
3501 2 0.002 0.0242214 -0.1299 -0.000693276 8.09488e-13 -1.24589e-13 3.32267e-13 9.14445e-06 1.67867e-09 1.43362e-08
3579 2 0.002 0.0276952 -0.13192 -0.000628327 8.25046e-13 -2.04861e-13 2.72733e-13 4.32763e-06 1.80902e-09 1.58236e-08
3580 2 0.002 0.0276842 -0.127903 -0.00104796 7.23749e-13 -3.05039e-13 -3.55888e-13 1.08914e-05 3.80992e-09 2.47335e-08
3499 2 0.002 0.0242337 -0.137945 -0.000203388 3.98712e-13 -8.55424e-14 -2.90432e-13 6.69226e-06 5.1562e-10 8.63022e-09
3578 2 0.002 0.0277003 -0.135939 -0.00033272 6.33303e-13 -1.8197e-13 -3.26403e-13 7.01194e-06 9.43029e-10 9.576e-09
3421 2 0.002 0.0207651 -0.135929 -0.000155408 4.91974e-13 -3.05268e-15 -3.81024e-13 7.01325e-06 4.70953e-10 8.70167e-09
3500 2 0.002 0.0242288 -0.133921 -0.000406107 7.0096e-13 -1.15697e-13 7.11901e-15 3.79098e-06 9.13329e-10 1.0464e-08
3656 2 0.002 0.0311711 -0.137958 -0.000149073 5.38536e-13 -1.27639e-13 -3.33494e-14 6.3039e-06 1.64827e-09 7.69517e-09
3657 2 0.002 0.0311704 -0.133943 -0.000389326 8.00804e-13 -2.06438e-13 2.57197e-13 2.81005e-06 1.47324e-09 1.87927e-08
3658 2 0.002 0.0311595 -0.129928 -0.000782084 8.46749e-13 -3.7763e-13 -4.14408e-13 3.29842e-06 1.87285e-09 2.64428e-08
3577 2 0.002 0.0277036 -0.13996 -0.000152032 3.30377e-13 -5.76283e-14 5.7117e-13 2.97052e-06 6.44001e-10 6.93548e-09
3659 2 0.002 0.0311483 -0.125914 -0.00129025 6.06006e-13 -3.33992e-13 3.77364e-13 6.14409e-06 5.01088e-09 3.54486e-08
3343 2 0.002 0.0172917 -0.129897 -0.000109353 6.79086e-13 1.79359e-13 -2.91502e-13 8.38082e-06 9.49107e-10 1.09313e-08
3342 2 0.002 0.0172969 -0.133918 -6.07452e-06 5.3738e-13 1.97722e-13 -1.21568e-12 7.36119e-06 4.95692e-10 8.61671e-09
3420 2 0.002 0.02077 -0.139955 -3.66286e-05 1.51863e-13 3.92891e-15 3.90297e-13 6.5234e-06 3.55237e-10 7.76024e-09
3736 2 0.002 0.0346175 -0.12794 -0.00082296 7.77704e-13 -4.05712e-13 -2.07156e-13 3.5448e-06 1.10027e-09 3.41186e-08
3814 2 0.002 0.0380728 -0.125949 -0.000752785 6.19396e-13 -4.20996e-13 -3.62713e-14 3.34881e-06 1.72977e-09 2.78612e-08
3968 2 0.002 0.0450075 -0.125975 -0.000371284 6.20339e-13 -7.76579e-14 -4.97436e-13 0.00747306 1.72638e-09 9.39541e-09
3735 2 0.002 0.0346305 -0.131956 -0.000364448 8.49416e-13 -2.54731e-13 4.57431e-13 2.44501e-06 1.43459e-09 3.29789e-08
3891 2 0.002 0.0415372 -0.127977 -0.00033847 7.58213e-13 -1.54028e-13 4.28059e-13 3.10922e-06 1.71159e-09 2.34679e-08
3813 2 0.002 0.0380813 -0.12997 -0.000331511 9.00929e-13 -3.31707e-13 -3.90562e-13 2.57062e-06 1.26902e-09 3.58679e-08
3967 2 0.002 0.0450057 -0.129992 -0.000101894 8.35317e-13 5.45555e-14 6.63368e-13 8.1036e-06 1.71405e-09 1.16895e-08
4341 2 0.002 0.0624146 -0.132057 -0.000782104 -8.23123e-14 -7.04874e-13 -3.74921e-12 3.03638e-06 5.90693e-08 2.73633e-08
4342 2 0.002 0.0624464 -0.128087 -0.00119201 1.69456e-13 1.63287e-13 7.36347e-13 6.00363e-06 5.28492e-08 1.14795e-07
4268 2 0.002 0.0589344 -0.130029 -0.000795183 4.03923e-13 3.02221e-13 9.01241e-13 2.72649e-06 1.30884e-08 1.60711e-08
4194 2 0.002 0.055452 -0.128007 -0.000619654 4.98813e-13 3.99575e-13 1.95752e-13 3.68848e-06 2.24163e-09 1.21365e-08
4267 2 0.002 0.0589114 -0.134002 -0.000347604 1.42595e-13 2.0876e-13 1.43896e-12 1.45823e-06 7.76134e-09 6.38123e-09
4269 2 0.002 0.0589483 -0.126032 -0.000846221 1.50926e-13 5.43201e-13 -1.67671e-12 3.6154e-06 4.86717e-09 3.56824e-08
4192 2 0.002 0.0554299 -0.135992 -0.000129071 1.52164e-13 3.21245e-14 -4.27473e-13 1.71645e-06 1.9265e-09 2.30585e-09
4119 2 0.002 0.05197 -0.125992 -0.000458537 5.08357e-13 3.58753e-13 -3.38025e-13 6.88832e-06 1.38765e-09 8.65347e-09
4193 2 0.002 0.0554387 -0.132 -0.000425654 3.86257e-13 1.84981e-13 -6.61652e-13 2.80565e-06 2.38854e-09 7.95952e-09
4043 2 0.002 0.0484837 -0.127987 -0.000292851 6.88013e-13 1.38999e-13 -4.25637e-13 0.00681022 1.17649e-09 7.14071e-09
4118 2 0.002 0.0519611 -0.129995 -0.000350928 6.03407e-13 2.56653e-13 -4.48723e-13 6.43332e-06 1.06111e-09 8.07365e-09
4117 2 0.002 0.0519546 -0.133995 -0.000145574 5.05178e-13 1.62646e-13 4.75226e-13 2.76912e-06 1.03541e-09 6.00148e-09
4042 2 0.002 0.0484787 -0.131995 -7.13875e-05 7.57891e-13 1.86037e-13 7.0384e-13 6.84364e-06 1.84587e-09 8.32958e-09
76 1 0.015 0.066733 -0.131648 -0.00306019 -8.59353e-11 -5.37866e-11 -6.73574e-12 -7.57801e-06 0 1.87339e-06
4414 2 0.002 0.0659655 -0.130225 -0.00152513 -2.39331e-13 -7.47813e-14 -1.7574e-13 4.70467e-05 1.67597e-07 2.04878e-06
4415 2 0.002 0.0658894 -0.126097 -0.00112915 -5.68594e-14 2.94883e-13 3.26304e-13 6.17525e-06 5.35733e-08 1.42165e-07
4486 2 0.002 0.0693191 -0.128065 -0.000729055 -4.03526e-13 2.22319e-13 1.64057e-12 4.12566e-06 5.76145e-08 3.36481e-08
4557 2 0.002 0.0727557 -0.12601 -0.00022758 -9.96952e-14 1.44985e-13 -6.2277e-14 6.74079e-07 6.53503e-09 9.68714e-09
1479 2 0.002 -0.0658112 -0.122009 -0.000461103 1.80925e-14 -4.263e-14 -1.54006e-13 3.32267e-06 3.55126e-09 1.30481e-08
1407 2 0.002 -0.069281 -0.124002 -0.00034423 1.29296e-14 4.53207e-14 -1.53463e-13 3.58508e-06 4.97023e-09 2.48613e-09
1408 2 0.002 -0.0692599 -0.119995 -9.88956e-05 9.00534e-15 9.54801e-14 2.30058e-13 4.55272e-06 1.26383e-09 3.31545e-09
1480 2 0.002 -0.0657848 -0.117997 -0.000128186 1.68355e-14 1.35072e-14 -6.17853e-14 5.8829e-06 8.84195e-10 6.31913e-09
1337 2 0.002 -0.0727338 -0.121991 -3.71036e-05 2.94884e-16 1.36348e-13 8.80757e-14 3.05299e-06 1.30017e-09 1.40742e-09
1267 2 0.002 -0.0762058 -0.123993 1.82339e-05 1.14654e-14 8.68112e-14 2.43588e-13 2.34877e-06 6.36314e-10 1.01401e-09
1626 2 0.002 -0.0588531 -0.11798 -0.000647876 1.29323e-13 -3.50965e-13 5.51948e-14 3.03365e-06 2.31434e-09 6.68252e-09
1851 2 0.002 -0.0484386 -0.119986 -0.00134886 2.80076e-13 -3.79129e-13 3.6101e-13 7.71769e-06 5.10317e-09 9.42902e-09
1552 2 0.002 -0.062334 -0.119992 -0.000518965 6.46943e-14 -1.79369e-13 1.00283e-13 5.7852e-06 2.094e-09 6.52729e-09
1776 2 0.002 -0.0519092 -0.117975 -0.00127281 2.79739e-13 -4.7963e-13 4.86814e-13 7.73913e-06 5.32758e-09 1.19739e-08
1778 2 0.002 -0.0518863 -0.109982 -0.00106127 1.94734e-13 -5.37538e-13 -2.34758e-13 6.51195e-06 4.85775e-09 4.76399e-08
1777 2 0.002 -0.0518998 -0.113972 -0.00131445 2.78871e-13 -5.55768e-13 1.5854e-13 5.20006e-06 6.85909e-09 2.37673e-08
1852 2 0.002 -0.0484313 -0.115987 -0.00176408 2.62156e-13 -5.24475e-13 -3.6778e-13 1.20162e-05 1.82836e-08 2.72401e-08
1853 2 0.002 -0.048432 -0.111984 -0.00187659 3.43582e-13 -5.60945e-13 1.61224e-13 1.67403e-05 4.02931e-08 6.21468e-08
1700 2 0.002 -0.0553902 -0.119978 -0.000954524 1.40487e-13 -4.46006e-13 -6.28156e-13 3.00062e-06 2.98415e-09 7.56206e-09
1775 2 0.002 -0.051921 -0.121981 -0.00105646 2.03221e-13 -4.52288e-13 -3.11667e-13 5.85443e-06 2.16127e-09 6.34048e-09
1850 2 0.002 -0.0484534 -0.123983 -0.000924319 2.33395e-13 -3.64587e-13 -2.97612e-13 5.6976e-06 1.56703e-09 5.38503e-09
1701 2 0.002 -0.0553739 -0.115972 -0.000903538 2.02263e-13 -4.81342e-13 1.44787e-13 7.38879e-06 3.40434e-09 1.09004e-08
1702 2 0.002 -0.0553547 -0.111978 -0.000651405 8.89157e-14 -4.32833e-13 -6.74493e-13 9.42505e-06 2.17411e-09 2.12065e-08
1627 2 0.002 -0.0588291 -0.113982 -0.000357875 1.07848e-13 -3.34714e-13 -1.25632e-13 7.30076e-06 1.76164e-09 9.61854e-09
1551 2 0.002 -0.0623606 -0.124006 -0.000698134 4.83318e-14 -1.55172e-13 1.50952e-13 3.22865e-06 4.11904e-09 1.28456e-08
1625 2 0.002 -0.0588739 -0.121988 -0.000770075 1.06504e-13 -3.11401e-13 1.04955e-13 5.54794e-06 2.32932e-09 7.41488e-09
1699 2 0.002 -0.0554028 -0.123985 -0.000845193 1.75371e-13 -3.17466e-13 7.61146e-13 2.49609e-06 1.50775e-09 5.1628e-09
1553 2 0.002 -0.0623072 -0.11599 -0.000194767 4.89192e-14 -1.40545e-13 -2.6122e-13 6.24631e-06 1.35225e-09 5.98747e-09
24 1 0.015 -0.0439578 -0.112546 -0.00457316 3.53706e-12 -1.57564e-11 -2.4869e-12 -5.23378e-06 0 1.22386e-06
1929 2 0.002 -0.0449602 -0.110007 -0.00243171 3.27064e-13 -4.44615e-13 -1.98171e-14 3.31503e-05 5.45839e-08 6.91872e-07
1926 2 0.002 -0.0449727 -0.121988 -0.00105611 2.43049e-13 -1.66048e-13 5.56878e-13 7.4983e-06 4.07895e-09 1.02617e-08
2160 2 0.002 -0.0345619 -0.112076 -0.000676848 4.81526e-13 3.7728e-13 -4.21435e-13 3.58093e-06 6.72195e-09 4.92807e-08
2083 2 0.002 -0.0380018 -0.110079 -0.00151773 2.20825e-13 1.53266e-13 8.46539e-13 6.88529e-06 2.16978e-08 5.35345e-08
2081 2 0.002 -0.0380344 -0.118017 -0.00079412 2.83648e-13 1.93902e-13 -6.14241e-14 5.79388e-06 4.41988e-09 4.87835e-08
1927 2 0.002 -0.0449534 -0.118004 -0.00167061 3.00556e-13 -3.26898e-13 -1.67445e-13 1.18821e-05 1.78691e-08 2.62811e-08
1928 2 0.002 -0.0449508 -0.114029 -0.00245205 3.31857e-13 -3.97846e-13 -1.50054e-13 2.48522e-05 5.12963e-08 2.97825e-07
2003 2 0.002 -0.0414958 -0.120001 -0.00105938 2.73556e-13 -1.12656e-15 1.01976e-13 4.83965e-06 5.78741e-09 2.14119e-08
2004 2 0.002 -0.0414686 -0.116031 -0.00174158 3.40309e-13 -8.61451e-14 4.31667e-15 1.58143e-05 4.016e-08 6.07963e-08
2005 2 0.002 -0.04145 -0.112055 -0.00239049 3.34988e-13 -1.22395e-13 1.95419e-13 3.03098e-05 5.36441e-08 5.48866e-07
2082 2 0.002 -0.0380061 -0.114054 -0.00135025 2.34242e-13 2.37706e-13 5.45905e-13 7.9374e-06 1.86105e-08 1.01223e-07
2159 2 0.002 -0.0345936 -0.116034 -0.000259433 3.44974e-13 4.0377e-13 -2.99399e-13 4.02174e-06 1.98205e-09 7.0103e-08
2080 2 0.002 -0.0380623 -0.121992 -0.000274466 1.59752e-13 1.91044e-13 -2.48416e-14 8.17052e-06 2.10494e-09 1.80742e-08
2002 2 0.002 -0.0415227 -0.123987 -0.000524389 2.25644e-13 -6.12629e-14 -3.10957e-13 6.65278e-06 2.49998e-09 8.68749e-09
2238 2 0.002 -0.0311014 -0.110091 -0.000158108 3.8824e-13 5.56079e-13 -4.28187e-14 4.15363e-06 4.67691e-09 2.08972e-08
3425 2 0.002 0.0207482 -0.119855 -0.000764257 2.14934e-14 -1.09198e-14 -6.53187e-13 1.50205e-05 5.08189e-09 4.39957e-08
3426 2 0.002 0.0207557 -0.115858 -0.000525261 -1.33581e-13 -1.53543e-14 4.09998e-13 1.66823e-05 4.09038e-09 6.33702e-08
3503 2 0.002 0.0242027 -0.121861 -0.00142253 2.42275e-13 -1.4421e-13 -1.89417e-13 1.76618e-05 1.90342e-08 5.91895e-08
3504 2 0.002 0.0242009 -0.117849 -0.00145109 -2.05135e-13 -9.81735e-14 -3.77338e-13 2.20414e-05 3.67183e-08 9.66209e-08
3505 2 0.002 0.0242088 -0.113849 -0.000995292 -4.86535e-13 -1.0182e-13 1.09722e-13 1.06265e-05 1.4251e-08 1.11214e-07
3582 2 0.002 0.0276632 -0.119879 -0.0022915 3.66196e-14 -1.86432e-13 1.83675e-13 3.22675e-05 5.17084e-08 6.11787e-07
3583 2 0.002 0.0276643 -0.115849 -0.00200381 -5.11259e-13 -1.21029e-13 -1.71395e-13 3.85589e-05 4.59475e-08 8.92294e-07
3584 2 0.002 0.0276629 -0.11185 -0.0010298 -7.04485e-13 -2.19757e-13 2.9333e-14 1.03457e-05 1.39836e-08 1.0897e-07
20 1 0.015 0.0298279 -0.119197 -0.00430364 -2.61017e-12 2.25964e-11 3.66886e-12 -5.51484e-06 0 1.56575e-06
3581 2 0.002 0.0276699 -0.123889 -0.00160313 5.00651e-13 -1.53566e-13 8.11871e-13 1.53846e-05 2.0859e-08 4.41291e-08
3427 2 0.002 0.0207656 -0.11187 -4.29568e-05 -2.76658e-13 -3.13499e-14 1.04593e-12 7.82334e-06 2.77553e-09 5.74862e-08
3424 2 0.002 0.0207497 -0.123866 -0.000726289 5.19888e-13 -2.35616e-14 -4.3554e-14 1.23758e-05 4.00103e-09 2.78028e-08
3345 2 0.002 0.0172924 -0.121869 -0.000164108 3.71185e-13 1.51687e-13 -5.36173e-14 1.16182e-05 1.98022e-09 2.60661e-08
3506 2 0.002 0.0242178 -0.109858 -0.000254781 -6.36472e-13 1.29012e-14 -7.21133e-14 7.93061e-06 4.55541e-09 5.61682e-08
3663 2 0.002 0.0311287 -0.109864 -0.000619972 -8.66385e-13 -4.99965e-13 3.41838e-13 1.56254e-05 4.60174e-09 5.7316e-08
3662 2 0.002 0.0311283 -0.113854 -0.0014785 -6.42108e-13 -2.54547e-13 -9.67876e-13 2.0519e-05 3.52369e-08 8.22811e-08
3660 2 0.002 0.031146 -0.121901 -0.00185279 2.1666e-13 -3.49021e-13 1.47007e-13 1.63083e-05 4.00486e-08 4.87132e-08
3661 2 0.002 0.0311561 -0.117869 -0.00227181 -2.94275e-13 -3.07054e-13 -2.26042e-13 2.9032e-05 5.02704e-08 4.18297e-07
3737 2 0.002 0.0346107 -0.123922 -0.00127835 3.32091e-13 -3.61082e-13 7.5536e-13 6.08003e-06 4.66037e-09 3.51764e-08
3816 2 0.002 0.0380666 -0.117906 -0.00105025 -5.34993e-13 -5.63154e-13 9.80228e-13 1.11843e-05 4.5587e-09 1.96103e-08
3739 2 0.002 0.0345975 -0.115877 -0.00141985 -4.70487e-13 -4.62475e-13 -1.04955e-12 1.62502e-05 1.7222e-08 4.58242e-08
3738 2 0.002 0.0346101 -0.119897 -0.00158666 7.40896e-14 -4.98978e-13 -1.16634e-12 1.46051e-05 1.95473e-08 3.92853e-08
3740 2 0.002 0.0345917 -0.111877 -0.000820296 -8.86009e-13 -5.73364e-13 -1.81665e-13 1.39136e-05 4.61641e-09 3.42075e-08
3818 2 0.002 0.038064 -0.109903 -0.000243386 -1.03958e-12 -6.39489e-13 -1.12764e-13 1.07948e-05 1.57544e-09 1.90984e-08
3817 2 0.002 0.0380607 -0.1139 -0.000740337 -8.78315e-13 -6.17697e-13 2.55151e-13 1.1746e-05 3.29444e-09 2.30951e-08
3894 2 0.002 0.0415348 -0.115922 -0.000543523 -5.89047e-13 -4.32263e-13 -6.88471e-13 9.39174e-06 1.52618e-09 1.38253e-08
3895 2 0.002 0.0415362 -0.111923 -0.000188201 -9.85804e-13 -5.52748e-13 -7.63427e-14 4.9206e-06 1.14507e-09 1.60689e-08
3892 2 0.002 0.0415353 -0.123954 -0.000621535 4.35906e-13 -3.09087e-13 -6.14876e-13 4.32284e-06 2.2471e-09 1.56288e-08
3893 2 0.002 0.0415355 -0.119934 -0.000704162 -1.03134e-13 -3.79448e-13 -3.04863e-13 8.76825e-06 2.06427e-09 1.28371e-08
3815 2 0.002 0.0380689 -0.121927 -0.00103123 1.51459e-14 -4.21126e-13 1.17458e-12 1.05314e-05 3.67178e-09 2.31825e-08
3969 2 0.002 0.0450099 -0.121958 -0.00047677 1.48258e-13 -1.12188e-13 3.63643e-13 7.40056e-06 1.86085e-09 9.06536e-09
3970 2 0.002 0.0450108 -0.117945 -0.000376195 -3.79624e-13 -2.15022e-13 1.06431e-13 3.9392e-06 1.35784e-09 9.79261e-09
3971 2 0.002 0.0450112 -0.113942 -8.6377e-05 -7.72813e-13 -2.46242e-13 -6.21516e-13 4.30237e-06 8.02479e-10 1.16343e-08
4343 2 0.002 0.0624166 -0.124049 -0.000891057 7.20955e-14 4.51009e-13 7.36117e-13 4.02023e-06 1.27391e-08 3.49542e-08
4195 2 0.002 0.0554592 -0.124004 -0.000570134 3.19921e-13 4.55772e-13 1.12986e-12 8.20022e-06 2.12028e-09 1.5804e-08
4270 2 0.002 0.0589365 -0.122018 -0.00057756 4.71625e-14 7.06066e-13 -8.28516e-13 4.60831e-06 2.20256e-09 1.89829e-08
4344 2 0.002 0.0624004 -0.120026 -0.000436925 -9.92888e-14 7.56038e-13 -5.57624e-13 3.14832e-06 1.55445e-09 2.0737e-08
4271 2 0.002 0.058926 -0.118009 -0.0001698 -2.29155e-13 6.92118e-13 7.92173e-14 4.14518e-06 4.57369e-10 1.36994e-08
4196 2 0.002 0.0554543 -0.119997 -0.000311987 -2.9292e-14 4.95008e-13 1.28863e-12 3.92709e-06 1.16132e-09 1.24138e-08
4044 2 0.002 0.0484889 -0.123977 -0.000396983 3.9215e-13 1.65973e-13 9.37502e-13 0.0068156 1.60469e-09 7.5128e-09
4120 2 0.002 0.051974 -0.121984 -0.000385578 1.34972e-13 4.25211e-13 -9.17238e-13 7.19765e-06 1.56578e-09 9.85928e-09
4045 2 0.002 0.0484909 -0.119966 -0.000316998 -8.47271e-14 1.34539e-13 -9.84031e-14 7.12232e-06 1.51998e-09 8.51422e-09
4046 2 0.002 0.0484896 -0.115961 -5.01534e-05 -6.18208e-13 -7.45365e-14 1.08066e-12 7.68323e-06 1.0013e-09 9.21648e-09
4121 2 0.002 0.0519715 -0.117979 -0.000129065 -2.87435e-13 4.3165e-13 -8.43289e-13 7.4153e-06 1.16813e-09 9.64021e-09
4345 2 0.002 0.0623925 -0.116015 2.92083e-05 -3.13166e-13 5.5134e-13 1.52007e-12 4.07748e-06 4.35317e-10 1.33085e-08
4197 2 0.002 0.0554475 -0.115995 8.2711e-05 -4.4758e-13 4.93501e-13 3.2835e-13 7.72945e-06 5.109e-10 1.07468e-08
4487 2 0.002 0.0693198 -0.124032 -0.000600384 2.3011e-13 5.73515e-13 -2.55769e-12 2.66418e-06 1.41713e-08 2.61592e-08
4416 2 0.002 0.0658667 -0.122045 -0.000637912 -6.90455e-14 3.79918e-13 1.26445e-12 3.76561e-06 3.62449e-09 4.62163e-08
4488 2 0.002 0.0693227 -0.120018 -0.000207977 -1.17775e-13 5.33908e-13 -1.38086e-13 2.51599e-06 1.84465e-09 1.86804e-08
4417 2 0.002 0.0658611 -0.118023 -0.00015839 -1.74825e-13 7.74172e-13 -1.11382e-12 2.88523e-06 1.06631e-09 1.92458e-08
4558 2 0.002 0.0727759 -0.122005 -7.98772e-05 -2.25085e-13 1.94708e-13 1.80029e-12 1.65851e-06 3.17435e-09 1.57899e-08
637 2 0.002 -0.110825 -0.0959878 -0.000132682 -8.57954e-14 -7.79393e-14 -4.46841e-14 8.11847e-06 1.18965e-09 1.4963e-08
694 2 0.002 -0.107353 -0.0979847 -0.000220914 -1.1909e-13 -9.85203e-14 -1.84731e-13 9.44921e-06 1.53417e-09 2.25749e-08
695 2 0.002 -0.107328 -0.0939754 -0.000402685 -1.52174e-13 -1.64297e-13 1.63365e-13 4.81227e-06 9.95946e-10 2.25435e-08
816 2 0.002 -0.100351 -0.0939484 -0.000919186 -3.52578e-13 -2.07693e-13 -1.4726e-13 1.26041e-05 2.47528e-09 4.17115e-08
754 2 0.002 -0.103854 -0.0959673 -0.000544163 -1.99048e-13 -1.36424e-13 3.82881e-13 5.35539e-06 1.01821e-09 3.08083e-08
878 2 0.002 -0.0968805 -0.095939 -0.000877092 -4.1376e-13 -1.96521e-13 -1.25882e-13 1.23969e-05 3.2506e-09 3.46951e-08
877 2 0.002 -0.0969228 -0.099947 -0.000459586 -3.09836e-13 -1.06645e-13 2.25746e-13 3.27046e-06 1.48681e-09 2.27709e-08
753 2 0.002 -0.103887 -0.0999797 -0.000259363 -1.4902e-13 -9.93574e-14 -2.31045e-13 5.19017e-06 1.77983e-09 2.99673e-08
814 2 0.002 -0.100424 -0.101967 -0.00025114 -1.63332e-13 -1.06431e-13 -7.44634e-14 3.1347e-06 1.49266e-09 2.63543e-08
815 2 0.002 -0.100387 -0.0979562 -0.000573869 -2.64653e-13 -1.52278e-13 1.69677e-13 3.56904e-06 1.12489e-09 3.18622e-08
813 2 0.002 -0.100444 -0.105978 -7.28954e-05 -7.78113e-14 -5.9755e-14 4.11716e-14 3.22732e-06 9.66407e-10 1.00969e-08
876 2 0.002 -0.0969565 -0.103959 -0.000169611 -1.73458e-13 -9.93746e-14 -7.65699e-14 3.68851e-06 1.18245e-09 1.20847e-08
875 2 0.002 -0.0969841 -0.107977 -2.90165e-05 -6.69167e-14 -4.51517e-14 4.90161e-14 1.78696e-06 1.513e-09 8.31999e-09
1072 2 0.002 -0.0864434 -0.0939404 -0.000251675 -5.16488e-13 3.74911e-14 -2.41978e-13 1.3762e-05 3.36483e-09 3.33343e-08
941 2 0.002 -0.0934221 -0.0979341 -0.000578235 -4.31048e-13 -9.23902e-14 7.93624e-14 1.14291e-05 2.90109e-09 2.4387e-08
942 2 0.002 -0.0933706 -0.0939253 -0.00110867 -5.01996e-13 -1.77982e-13 -5.96705e-14 1.59832e-05 9.59368e-09 4.70441e-08
1006 2 0.002 -0.0899267 -0.0959319 -0.000537959 -4.69065e-13 -8.97569e-14 -4.8569e-13 1.29432e-05 3.31915e-09 2.57568e-08
940 2 0.002 -0.0934648 -0.101948 -0.00019994 -2.99896e-13 -6.76005e-14 -4.35817e-14 4.3366e-06 1.54021e-09 1.39794e-08
1005 2 0.002 -0.0899761 -0.0999455 -0.000128968 -4.28852e-13 4.61891e-14 1.91828e-13 5.04678e-06 1.41368e-09 1.6549e-08
1779 2 0.002 -0.0518651 -0.106013 -0.000517389 1.41775e-13 -5.18332e-13 -2.74308e-13 6.90514e-06 2.08834e-09 5.79911e-08
1855 2 0.002 -0.0483979 -0.10403 -0.000701909 7.84413e-14 -3.70887e-13 -6.38248e-13 4.65483e-06 4.74784e-09 4.63932e-08
1854 2 0.002 -0.0484203 -0.107995 -0.00147 3.26176e-13 -5.88823e-13 3.41209e-13 9.0455e-06 1.88857e-08 1.00318e-07
1703 2 0.002 -0.0553331 -0.108004 -0.000192687 1.46697e-13 -4.83619e-13 -1.32571e-13 5.75625e-06 1.19952e-09 3.91968e-08
1930 2 0.002 -0.0449507 -0.10603 -0.00148606 2.0819e-13 -3.46339e-13 -1.54098e-13 8.62524e-06 2.01964e-08 7.20261e-08
2006 2 0.002 -0.0414769 -0.10805 -0.00182915 2.31824e-13 -2.01675e-13 5.26607e-13 1.65102e-05 4.29728e-08 4.07741e-08
2084 2 0.002 -0.0379994 -0.106079 -0.00126568 3.08556e-13 1.46912e-13 -1.09491e-13 8.84737e-06 9.79714e-09 1.39443e-08
2162 2 0.002 -0.0345091 -0.104099 -0.000934602 3.05958e-13 2.77032e-13 5.51084e-13 2.8838e-06 7.46465e-09 7.27356e-09
2007 2 0.002 -0.0414679 -0.10406 -0.00116087 1.96422e-13 -1.05147e-13 -3.07532e-13 1.10839e-05 6.9902e-09 2.16713e-08
2161 2 0.002 -0.0345379 -0.108098 -0.000893816 3.39235e-13 3.78346e-13 2.22782e-13 2.57044e-06 8.69988e-09 1.93974e-08
2164 2 0.002 -0.0344379 -0.0960985 -0.000618363 1.4174e-13 -5.70915e-14 7.30042e-13 4.16259e-06 2.83506e-09 1.41193e-08
1931 2 0.002 -0.0449204 -0.102057 -0.000653588 1.30255e-13 -3.70897e-13 6.02842e-14 6.25908e-06 3.47212e-09 3.36178e-08
2085 2 0.002 -0.0379763 -0.102079 -0.000900286 1.8949e-13 6.02613e-14 -2.79949e-13 7.3668e-06 4.99922e-09 8.57569e-09
2163 2 0.002 -0.0344758 -0.100096 -0.000836357 2.14941e-13 1.66931e-13 -5.6181e-13 3.1627e-06 5.22182e-09 7.90986e-09
2008 2 0.002 -0.0414329 -0.100074 -0.000524005 1.06427e-13 -2.58126e-13 4.87814e-13 4.83078e-06 2.60524e-09 1.55748e-08
2086 2 0.002 -0.0379366 -0.0980855 -0.000483042 1.29264e-13 -1.57054e-13 9.18527e-13 4.00662e-06 2.70012e-09 1.00873e-08
2087 2 0.002 -0.0378884 -0.094099 -3.14657e-05 -2.72575e-13 3.82179e-14 -1.60816e-12 9.44526e-06 1.63181e-09 1.49589e-08
2009 2 0.002 -0.0413823 -0.0960919 8.55344e-05 -1.90078e-13 -3.41535e-14 -1.03832e-12 9.93608e-06 1.24926e-09 1.4962e-08
92 1 0.015 -0.0194908 -0.0961402 -0.00443862 7.98429e-12 1.21391e-11 -2.41723e-12 -7.59804e-06 0 1.62391e-06
2475 2 0.002 -0.0206378 -0.104175 -0.000256825 3.5866e-13 2.93641e-13 -5.70017e-15 1.35348e-05 4.74892e-09 5.57141e-08
2240 2 0.002 -0.0310079 -0.10212 -0.000891212 3.37765e-13 3.57839e-13 2.08362e-13 5.92978e-06 7.56269e-09 6.82194e-09
2319 2 0.002 -0.0275043 -0.100157 -0.00115471 3.66535e-13 3.00434e-13 -4.72703e-13 9.20609e-06 9.4571e-09 1.54841e-08
2318 2 0.002 -0.0275527 -0.104142 -0.000609432 4.12027e-13 5.58281e-13 5.62213e-13 7.39036e-06 6.24614e-09 8.67358e-09
2396 2 0.002 -0.0241245 -0.10614 -1.9915e-05 4.60867e-13 2.73941e-13 -7.35087e-13 1.04746e-05 3.29233e-09 2.62348e-08
2556 2 0.002 -0.0170964 -0.0982364 -0.00136681 2.13046e-13 2.3518e-13 4.17067e-13 1.98663e-05 4.928e-08 7.34338e-08
2477 2 0.002 -0.0204922 -0.0963321 -0.00258098 3.79935e-13 2.71552e-13 9.28902e-15 3.96197e-05 7.65066e-08 8.72639e-07
2398 2 0.002 -0.0240051 -0.0982223 -0.0017342 4.45105e-13 3.73381e-13 4.34923e-13 1.71367e-05 3.75381e-08 5.61391e-08
2476 2 0.002 -0.0205603 -0.100247 -0.00136307 3.71437e-13 3.16901e-13 2.25235e-13 1.78229e-05 3.23317e-08 7.97467e-08
2241 2 0.002 -0.0309736 -0.0981191 -0.00101795 2.72356e-13 1.80103e-13 4.40736e-14 3.96722e-06 5.57835e-09 1.36415e-08
2320 2 0.002 -0.0274792 -0.0961602 -0.00145809 2.94996e-13 1.80071e-13 1.83512e-14 1.2646e-05 9.02069e-09 3.29672e-08
2397 2 0.002 -0.0240545 -0.10219 -0.000923176 4.25201e-13 3.31826e-13 -2.28046e-13 1.13146e-05 1.0291e-08 2.73079e-08
2555 2 0.002 -0.0171668 -0.102183 -0.000374195 2.40016e-13 1.68623e-13 3.10153e-13 1.49262e-05 7.72902e-09 5.26094e-08
2242 2 0.002 -0.0309471 -0.0941208 -0.00095713 8.30312e-14 1.25546e-14 -2.49932e-13 5.44432e-06 2.32317e-09 2.88967e-08
2399 2 0.002 -0.0239964 -0.0942241 -0.00209447 3.3452e-13 2.13542e-13 2.71925e-13 2.21482e-05 5.43263e-08 1.12398e-07
2557 2 0.002 -0.0170533 -0.0942536 -0.00207935 2.51719e-13 1.72845e-13 1.30104e-13 3.03066e-05 5.37044e-08 3.38334e-07
2239 2 0.002 -0.0310514 -0.106115 -0.000588007 4.4102e-13 4.34832e-13 -3.00796e-13 3.03193e-06 7.12434e-09 7.40795e-09
2317 2 0.002 -0.0276173 -0.108109 5.98778e-05 3.89298e-13 5.22929e-13 -3.76456e-14 8.38046e-06 4.11138e-09 1.14452e-08
2635 2 0.002 -0.0137247 -0.100142 -0.000172094 1.72015e-13 -5.80798e-14 2.61536e-14 1.48895e-05 4.77626e-09 4.01498e-08
2636 2 0.002 -0.0136867 -0.0961565 -0.000832889 1.29559e-13 -3.37287e-15 1.43075e-13 1.76437e-05 1.42198e-08 4.96365e-08
2716 2 0.002 -0.0102998 -0.0940729 -0.000102014 -1.88695e-14 -1.56847e-13 -5.22597e-14 1.48682e-05 2.70508e-09 3.3601e-08
3585 2 0.002 0.027679 -0.107862 -0.000131214 -7.04385e-13 -3.80991e-13 9.12211e-13 5.13137e-06 3.15217e-09 6.56388e-08
3741 2 0.002 0.0345974 -0.107886 -0.00013055 -9.8036e-13 -6.49835e-13 3.13942e-13 1.18962e-05 1.56756e-09 2.8041e-08
4967 2 0.002 0.0936041 -0.0939735 -0.000445059 -6.59963e-14 -2.57089e-13 6.07026e-13 3.71699e-06 1.43149e-10 8.91589e-09
4966 2 0.002 0.0935927 -0.0979811 -0.00017235 -1.86843e-13 -3.58827e-13 -4.48546e-13 2.06115e-06 4.87953e-10 9.96975e-09
4902 2 0.002 0.0901424 -0.0959702 3.42881e-05 -5.80156e-14 -3.85002e-13 -6.28107e-13 3.39517e-06 1.78356e-10 1.02668e-08
5091 2 0.002 0.100496 -0.101996 -0.000353576 -2.96861e-13 -2.59604e-13 5.71799e-13 8.95544e-07 5.49195e-09 6.01412e-09
5153 2 0.002 0.103994 -0.100043 -0.000743027 -5.59722e-13 -1.07583e-12 -3.35142e-12 3.81891e-06 3.49009e-08 2.02782e-08
5213 2 0.002 0.107532 -0.0981658 -0.00137239 -8.24555e-13 -5.96914e-13 8.28521e-13 2.44373e-05 1.00502e-07 5.07273e-07
5030 2 0.002 0.0970634 -0.0959952 -0.000671389 -3.1061e-13 -3.09325e-13 -3.4203e-13 7.32341e-06 9.75698e-10 9.62448e-09
5092 2 0.002 0.100528 -0.0980208 -0.000831958 -3.0351e-13 -2.37247e-13 1.40943e-12 7.15238e-06 7.21234e-09 1.15263e-08
5093 2 0.002 0.100544 -0.0940324 -0.00116407 -4.3179e-13 -2.09017e-13 8.79005e-14 1.0165e-05 3.56079e-09 2.23043e-08
5154 2 0.002 0.10403 -0.0960891 -0.00135918 -6.12852e-13 -3.68441e-13 1.09439e-12 1.36974e-05 3.97609e-08 4.18164e-08
5214 2 0.002 0.107526 -0.0941442 -0.00170273 -6.35417e-13 -8.489e-13 1.2742e-12 2.5064e-05 4.05055e-08 5.00605e-07
5029 2 0.002 0.097043 -0.0999904 -0.000351598 -3.62297e-13 -4.24584e-13 -1.23415e-12 1.61353e-06 2.42764e-09 8.92228e-09
68 1 0.015 0.109078 -0.0977197 -0.00300032 -8.78765e-11 -1.24266e-10 -1.52502e-12 -6.04174e-06 0 9.95377e-07
5090 2 0.002 0.100466 -0.105998 -7.20408e-05 3.02784e-16 -1.25959e-13 -8.70983e-15 -9.19741e-08 2.45166e-09 1.57247e-09
5028 2 0.002 0.0970208 -0.10399 -4.89156e-05 -1.05146e-13 -2.23009e-13 4.82601e-13 5.63388e-07 1.58657e-09 5.53558e-09
5271 2 0.002 0.110946 -0.096087 -0.000954406 1.44004e-13 -9.12043e-13 -3.2189e-12 6.44107e-06 6.84822e-08 1.54852e-07
638 2 0.002 -0.110811 -0.0919861 -0.000197295 -8.64139e-14 -1.28629e-13 -3.18186e-13 8.90926e-06 1.37073e-09 1.99414e-08
639 2 0.002 -0.110802 -0.0879823 -0.000135036 -3.14196e-14 -2.00153e-13 -6.65393e-13 4.70132e-06 1.32338e-09 2.0893e-08
582 2 0.002 -0.114291 -0.0899937 -1.65853e-05 -2.56872e-14 -9.94155e-14 5.10296e-13 6.50802e-06 1.61045e-09 8.53924e-09
881 2 0.002 -0.0968016 -0.0839252 -0.0013429 -1.50351e-13 -1.40183e-13 1.68568e-13 1.89682e-05 2.85913e-08 7.31751e-08
880 2 0.002 -0.0968117 -0.0879212 -0.00160674 -2.48322e-13 -1.74045e-13 8.28206e-13 1.97264e-05 4.0459e-08 8.2386e-08
696 2 0.002 -0.107315 -0.0899715 -0.000465875 -3.59376e-14 -2.1144e-13 5.80306e-13 3.46798e-06 8.33154e-10 2.54979e-08
697 2 0.002 -0.107305 -0.0859746 -0.000366446 1.43726e-13 -3.08859e-13 5.64277e-13 2.65511e-06 6.89012e-10 2.74866e-08