ITEM: TIMESTEP
25000
ITEM: NUMBER OF ATOMS
112
ITEM: BOX BOUNDS ff ff ff
-2.5000000000000000e-01 2.5000000000000000e-01
-2.5000000000000000e-01 2.5000000000000000e-01
-1.0000000000000001e-01 1.0000000000000001e-01
ITEM: ATOMS id type radius x y z fx fy fz v_pressure c_bendingE c_stretchingE
98 1 0.015 -0.0129115 -0.146978 0 2.26418e-12 7.80092e-14 0 -0.000318202 0 0
51 1 0.015 0.0142445 -0.143775 0 2.46042e-12 -7.18532e-13 0 -0.00020084 0 0
93 1 0.015 0.0417055 -0.141616 0 2.65771e-12 1.36035e-12 0 -0.000387403 0 0
56 1 0.015 -0.067259 -0.128952 0 1.68367e-12 -1.13364e-12 0 -9.65356e-05 0 0
61 1 0.015 -0.040763 -0.14011 0 1.86476e-12 -6.15537e-13 0 -0.000121425 0 0
76 1 0.015 0.0660273 -0.130255 0 2.59215e-12 1.60875e-12 0 -0.000319692 0 0
9 1 0.015 -0.0920058 -0.114438 0 1.52506e-12 -1.90275e-12 0 -0.000212452 0 0
24 1 0.015 -0.0439874 -0.112165 0 6.50313e-13 -5.44472e-13 0 -0.000186646 0 0
103 1 0.015 -0.0185968 -0.121937 0 8.20521e-13 -1.27982e-14 0 -0.000331178 0 0
20 1 0.015 0.029432 -0.118909 0 -6.38426e-13 1.92963e-13 0 -0.000283166 0 0
43 1 0.015 0.0886111 -0.115673 0 2.29577e-12 1.81083e-12 0 -0.000281534 0 0
88 1 0.015 -0.0684711 -0.10006 0 2.61922e-13 -1.05908e-12 0 -0.00019312 0 0
92 1 0.015 -0.0202776 -0.0951996 0 -3.52643e-13 2.19758e-13 0 -0.00022332 0 0
47 1 0.015 0.00484428 -0.108043 0 -1.77168e-13 1.07383e-12 0 -0.000221593 0 0
31 1 0.015 0.0544122 -0.10509 0 -1.00859e-12 3.73632e-13 0 -0.000143567 0 0
68 1 0.015 0.108332 -0.0970295 0 2.13161e-12 1.55192e-12 0 -0.000240632 0 0
37 1 0.015 -0.119702 -0.0837914 0 -6.34687e-13 1.41141e-12 0 -0.00031805 0 0
90 1 0.015 -0.0931236 -0.0870623 0 -9.33137e-13 -2.33404e-12 0 -0.000262467 0 0
33 1 0.015 -0.0452789 -0.0841267 0 -6.19365e-13 -5.71161e-13 0 -0.000202733 0 0
46 1 0.015 0.00329057 -0.0800164 0 -9.24349e-13 1.00039e-12 0 -0.000191209 0 0
45 1 0.015 0.0286338 -0.0919035 0 -7.98536e-13 7.44502e-13 0 -0.000194602 0 0
53 1 0.015 0.0784112 -0.0893742 0 -1.31725e-12 5.40336e-13 0 -0.00011315 0 0
96 1 0.015 -0.0701122 -0.0717767 0 -1.53577e-12 -1.44188e-12 0 -0.000197448 0 0
29 1 0.015 -0.0216984 -0.0677722 0 -1.06632e-12 3.73821e-13 0 -0.00021258 0 0
22 1 0.015 0.0262384 -0.0642608 0 -1.48508e-12 1.09301e-12 0 -0.000194585 0 0
52 1 0.015 0.0520728 -0.0771165 0 -1.17544e-12 8.21975e-13 0 -0.000162304 0 0
112 1 0.015 0.0993925 -0.0701642 0 -7.49437e-13 -8.88153e-15 0 -0.000240359 0 0
91 1 0.015 0.12573 -0.0756173 0 6.5334e-13 2.51215e-12 0 -0.000324473 0 0
99 1 0.015 -0.134546 -0.0606014 0 -8.97413e-13 1.09447e-12 0 -0.000295586 0 0
28 1 0.015 -0.0953486 -0.0591946 0 -2.41916e-12 -2.09046e-12 0 -0.000162256 0 0
109 1 0.015 -0.0465217 -0.0564653 0 -1.62056e-12 -1.12374e-12 0 -0.000224357 0 0
27 1 0.015 0.00123641 -0.0517683 0 -1.52379e-12 1.25765e-12 0 -0.000197891 0 0
30 1 0.015 0.0486113 -0.0489347 0 -1.8776e-12 8.59556e-13 0 -0.000199512 0 0
25 1 0.015 0.0742826 -0.0609112 0 -1.02267e-12 6.32552e-13 0 -0.000242037 0 0
10 1 0.015 0.136103 -0.0508449 0 1.21915e-12 2.20835e-12 0 -0.000288518 0 0
78 1 0.015 -0.142575 -0.0321492 0 -5.66011e-13 1.33564e-12 0 -0.000115498 0 0
41 1 0.015 -0.116713 -0.0424884 0 -8.87243e-13 4.47266e-13 0 -0.00039104 0 0
16 1 0.015 -0.0711711 -0.0439776 0 -2.4053e-12 -1.78303e-12 0 -0.000200335 0 0
63 1 0.015 -0.0232257 -0.0397872 0 -1.65141e-12 4.83035e-13 0 -0.000270274 0 0
8 1 0.015 0.0232847 -0.0358101 0 -2.09023e-12 1.70923e-12 0 -0.000180882 0 0
107 1 0.015 0.0714566 -0.033917 0 -2.37179e-12 3.72898e-13 0 -0.000269574 0 0
106 1 0.015 0.108532 -0.0435926 0 7.67531e-13 -6.71495e-13 0 -0.000134759 0 0
44 1 0.015 -0.0940489 -0.0293885 0 -1.27203e-12 -4.0688e-13 0 -0.000234689 0 0
84 1 0.015 -0.0472703 -0.0290841 0 -2.601e-12 -2.10756e-12 0 -0.000328083 0 0
110 1 0.015 -0.00210812 -0.0225028 0 -2.46232e-12 2.28608e-12 0 -0.000168427 0 0
75 1 0.015 0.0462463 -0.0208762 0 -1.92384e-12 1.21729e-12 0 -0.000195698 0 0
87 1 0.015 0.0938823 -0.0195222 0 -1.20029e-12 -1.99048e-12 0 -0.000283735 0 0
1 1 0.015 0.120255 -0.0170069 0 -1.14005e-12 1.23274e-13 0 -0.000302271 0 0
85 1 0.015 0.145063 -0.025598 0 1.26127e-13 2.43173e-12 0 -0.000380333 0 0
48 1 0.015 -0.145197 -0.00347305 0 -1.46435e-13 1.67015e-12 0 -9.42577e-05 0 0
73 1 0.015 -0.119453 -0.0155963 0 -7.13497e-13 5.71971e-13 0 -0.000192192 0 0
17 1 0.015 -0.0946041 -0.0018467 0 -8.76809e-13 -2.21988e-13 0 -0.000196846 0 0
2 1 0.015 -0.0703464 -0.015497 0 -1.62848e-12 -1.28643e-12 0 -0.000231077 0 0
34 1 0.015 -0.0446726 -0.00232364 0 -1.47325e-12 -2.74475e-12 0 -0.000233084 0 0
58 1 0.015 0.0210439 -0.00758143 0 -1.7018e-12 2.19006e-12 0 -0.000208011 0 0
60 1 0.015 0.0694077 -0.00604377 0 -8.78408e-13 -6.54524e-14 0 -0.000214373 0 0
54 1 0.015 -0.119295 0.0114892 0 -3.58599e-13 6.37403e-13 0 -0.000175556 0 0
26 1 0.015 -0.0690409 0.0116664 0 -8.50007e-13 -1.34316e-12 0 -0.000207076 0 0
42 1 0.015 -0.0173864 0.00132778 0 -2.57942e-12 3.24681e-12 0 -0.000169082 0 0
95 1 0.015 0.0443133 0.00709395 0 -4.59982e-13 1.28747e-12 0 -0.000232317 0 0
70 1 0.015 0.093344 0.00822607 0 6.52411e-14 -1.967e-12 0 -0.000215018 0 0
18 1 0.015 0.120666 0.0105391 0 -9.30736e-14 3.46309e-13 0 -0.000249744 0 0
23 1 0.015 0.146304 0.00162205 0 2.33493e-13 1.91325e-12 0 -0.000273738 0 0
36 1 0.015 -0.143661 0.0248084 0 3.53561e-13 1.90339e-12 0 -0.000197925 0 0
19 1 0.015 -0.0928617 0.0253386 0 -2.80998e-13 -1.97415e-13 0 -0.000215484 0 0
72 1 0.015 -0.0443857 0.0250688 0 -3.606e-13 -3.05959e-12 0 -0.000239092 0 0
5 1 0.015 -0.0178579 0.0305112 0 -2.03402e-12 4.1181e-12 0 -0.00016921 0 0
94 1 0.015 0.00637425 0.0158722 0 -2.72574e-12 2.05839e-12 0 -0.00018952 0 0
102 1 0.015 0.0301125 0.0304507 0 -2.17444e-12 3.92643e-13 0 -0.000222342 0 0
77 1 0.015 0.0677215 0.0214309 0 6.68044e-13 -1.34181e-13 0 -0.000252922 0 0
81 1 0.015 0.143177 0.0293961 0 1.35463e-13 1.27314e-12 0 -0.000150698 0 0
3 1 0.015 -0.116122 0.0385082 0 1.20536e-13 6.31185e-13 0 -0.000298484 0 0
69 1 0.015 -0.0683434 0.0394722 0 3.24456e-13 -1.37084e-12 0 -0.000201983 0 0
101 1 0.015 0.0061536 0.0443443 0 -1.40561e-12 2.1002e-12 0 -0.000181862 0 0
80 1 0.015 0.0535817 0.0447454 0 -1.17806e-12 -1.2144e-12 0 -0.000259656 0 0
7 1 0.015 0.0907196 0.0355609 0 1.40228e-12 -1.72683e-12 0 -0.000310764 0 0
100 1 0.015 0.116951 0.0371653 0 7.76546e-13 3.70783e-13 0 -0.000339665 0 0
83 1 0.015 -0.138456 0.0521297 0 7.85405e-13 1.96988e-12 0 -0.000356878 0 0
15 1 0.015 -0.0920241 0.0534396 0 9.35434e-13 -1.9845e-13 0 -0.000202669 0 0
67 1 0.015 -0.0440659 0.052994 0 8.73096e-13 -2.90326e-12 0 -0.000220661 0 0
65 1 0.015 -0.0179697 0.0594185 0 -8.69465e-13 4.30468e-12 0 -0.000192831 0 0
14 1 0.015 0.0305118 0.0591242 0 -3.821e-13 2.78863e-13 0 -0.00017902 0 0
11 1 0.015 0.0767806 0.0580841 0 -4.32716e-14 -2.50668e-12 0 -0.00035925 0 0
57 1 0.015 0.103732 0.061625 0 4.81784e-14 -5.78642e-13 0 -0.000192885 0 0
38 1 0.015 0.134883 0.0570896 0 -3.45248e-13 1.13366e-12 0 -0.000230916 0 0
82 1 0.015 -0.115929 0.0666556 0 1.62873e-12 5.5016e-13 0 -0.000273204 0 0
12 1 0.015 -0.0678347 0.0677615 0 1.26741e-12 -1.17366e-12 0 -0.000196344 0 0
49 1 0.015 0.00631316 0.0720905 0 2.10205e-13 1.68872e-12 0 -0.000214386 0 0
62 1 0.015 0.0551632 0.0740408 0 5.95107e-13 -1.43051e-12 0 -0.000190805 0 0
105 1 0.015 -0.115156 0.0928833 0 8.70395e-13 4.95014e-13 0 -0.000387926 0 0
104 1 0.015 -0.0910372 0.0816926 0 1.58229e-12 2.36655e-13 0 -0.000204401 0 0
50 1 0.015 -0.0444444 0.0815383 0 1.64782e-12 -2.19294e-12 0 -0.000209913 0 0
4 1 0.015 -0.018377 0.0880826 0 2.83166e-13 3.86913e-12 0 -0.000184468 0 0
89 1 0.015 0.0313412 0.0873215 0 1.2574e-12 1.27849e-13 0 -0.000203656 0 0
13 1 0.015 0.0844909 0.0841229 0 6.76301e-13 -2.08675e-12 0 -0.000207005 0 0
55 1 0.015 0.121869 0.0815031 0 -7.81809e-13 6.7753e-13 0 -0.000305905 0 0
40 1 0.015 -0.0680667 0.0976743 0 2.07522e-12 -2.81737e-14 0 -0.000100945 0 0
97 1 0.015 0.00649682 0.0985342 0 1.47902e-12 1.10024e-12 0 -0.000362709 0 0
74 1 0.015 0.0623635 0.101322 0 1.08733e-12 -1.60095e-12 0 -0.000211191 0 0
64 1 0.015 0.10464 0.102455 0 -8.54275e-13 3.65677e-13 0 -0.000312573 0 0
21 1 0.015 -0.0942529 0.110489 0 9.35565e-13 9.32802e-14 0 -0.000181774 0 0
32 1 0.015 -0.0424769 0.109919 0 3.01833e-12 -1.43156e-12 0 -0.000150922 0 0
6 1 0.015 -0.0151817 0.116841 0 2.27998e-12 2.40094e-12 0 -0.000138452 0 0
86 1 0.015 0.0127101 0.123263 0 2.19008e-12 4.84428e-13 0 -0.000365197 0 0
66 1 0.015 0.038308 0.1143 0 1.74091e-12 -1.0048e-13 0 -0.000224884 0 0
71 1 0.015 0.0835145 0.119567 0 -4.01191e-13 2.85985e-13 0 -0.00026046 0 0
111 1 0.015 -0.0720173 0.126175 0 3.5708e-13 1.23804e-13 0 -0.000247471 0 0
108 1 0.015 -0.0475994 0.137734 0 4.32908e-13 -7.87346e-13 0 -0.000284235 0 0
59 1 0.015 0.0594659 0.132868 0 3.3457e-13 4.81178e-13 0 -0.000213188 0 0
39 1 0.015 -0.0214882 0.144159 0 -9.52242e-14 8.85723e-13 0 -0.000297014 0 0
35 1 0.015 0.00527152 0.147608 0 9.69216e-14 -1.61767e-13 0 -0.000361763 0 0
79 1 0.015 0.0331678 0.142326 0 6.78079e-13 2.84159e-13 0 -0.000166754 0 0
