ITEM: TIMESTEP
300000
ITEM: NUMBER OF ATOMS
5843
ITEM: BOX BOUNDS ff ff ff
-2.5000000000000000e-01 2.5000000000000000e-01
-2.5000000000000000e-01 2.5000000000000000e-01
-1.0000000000000001e-01 1.0000000000000001e-01
ITEM: ATOMS id type radius x y z fx fy fz v_pressure c_bendingE c_stretchingE
98 1 0.015 -0.0134901 -0.149042 -0.00140557 -1.46361e-07 1.19442e-08 3.33849e-09 -6.24967e-06 0 3.42969e-06
2624 2 0.002 -0.0138853 -0.144055 -0.000358044 -9.3342e-10 2.40407e-11 -1.02227e-09 7.1327e-06 3.22344e-08 2.06927e-06
2703 2 0.002 -0.0104416 -0.146058 -0.00049843 -8.65344e-10 -4.38575e-10 -1.59017e-09 5.53567e-06 4.06023e-08 1.44114e-06
2783 2 0.002 -0.00698212 -0.143995 -1.42623e-05 -7.50538e-10 -7.22922e-10 1.88871e-09 5.16043e-06 1.62586e-08 2.60393e-08
3655 2 0.002 0.0311726 -0.141979 -6.13028e-05 -1.85991e-10 -1.14315e-10 -5.7184e-10 5.28478e-06 1.54672e-09 5.95287e-09
3498 2 0.002 0.0242397 -0.14197 -7.29676e-05 1.21679e-10 1.42465e-10 -3.25228e-10 6.18645e-06 4.96706e-10 8.63336e-09
3576 2 0.002 0.0277082 -0.143981 -4.86199e-05 -5.67165e-11 -2.96672e-11 -6.14228e-11 2.51383e-06 4.34398e-10 5.19495e-09
3419 2 0.002 0.0207788 -0.143979 1.08513e-05 4.08449e-10 7.09506e-11 9.15622e-10 5.70691e-06 4.26461e-10 6.44543e-09
1477 2 0.002 -0.0658403 -0.130026 -0.000480754 -4.39181e-10 -3.83865e-10 -2.05199e-09 7.85306e-07 1.12495e-08 4.06796e-08
1478 2 0.002 -0.0658497 -0.126045 -0.000692604 -5.63173e-10 -3.7227e-10 5.19759e-10 3.95501e-06 6.82573e-09 3.80727e-07
1406 2 0.002 -0.069297 -0.128016 -0.000358665 -2.57952e-10 6.75112e-11 1.68719e-09 1.20964e-07 7.90197e-09 1.11643e-08
56 1 0.015 -0.0677759 -0.129685 -0.00108316 -1.8238e-08 -4.83767e-09 -3.11805e-09 -2.76702e-06 0 4.10191e-07
1336 2 0.002 -0.0727451 -0.125997 -0.000124188 -4.3487e-10 1.72559e-10 -9.81661e-10 1.68554e-06 1.74195e-09 4.99057e-10
1849 2 0.002 -0.0484702 -0.127982 -0.000551326 4.02109e-10 -1.2865e-09 3.85702e-10 2.18973e-06 7.64985e-10 3.29747e-09
1774 2 0.002 -0.0519335 -0.125983 -0.000766238 6.77622e-11 -1.65915e-09 -1.75829e-09 2.37358e-06 7.05758e-10 4.06913e-09
1848 2 0.002 -0.0484855 -0.131984 -0.000245616 5.83565e-10 -9.67653e-10 -7.1645e-11 3.21992e-06 7.24674e-10 2.03499e-09
1550 2 0.002 -0.0623624 -0.12801 -0.000621262 -4.40983e-10 -5.61141e-10 1.36401e-09 4.33545e-06 5.14459e-09 4.55064e-09
1624 2 0.002 -0.058884 -0.125994 -0.000709734 -3.68815e-10 -1.14869e-09 -8.21094e-10 4.68748e-06 1.67206e-09 4.7222e-09
1623 2 0.002 -0.0588865 -0.129994 -0.000474351 -1.81698e-10 -8.22518e-10 -1.14377e-09 3.69008e-06 7.88772e-10 2.54872e-09
1622 2 0.002 -0.0588878 -0.133993 -0.000178486 -6.71263e-11 -3.90385e-10 -8.41161e-10 3.00599e-06 1.04024e-09 1.76833e-09
1772 2 0.002 -0.0519553 -0.133989 -0.000192123 3.21359e-10 -6.80158e-10 -1.24313e-09 1.5577e-06 5.99999e-10 2.29007e-09
1697 2 0.002 -0.0554182 -0.131988 -0.000335483 7.23985e-11 -7.28805e-10 5.65614e-10 1.67013e-06 3.21204e-10 2.085e-09
1698 2 0.002 -0.0554117 -0.127987 -0.000617661 -5.71622e-11 -1.13368e-09 1.25175e-09 4.17115e-06 4.53033e-10 3.26457e-09
1773 2 0.002 -0.0519456 -0.129984 -0.000462077 2.73604e-10 -1.08915e-09 4.92544e-10 1.91281e-06 2.70593e-10 2.74079e-09
1549 2 0.002 -0.0623573 -0.132001 -0.000291942 -1.89064e-10 -1.5656e-10 1.67604e-09 3.11267e-06 4.10177e-09 1.78087e-09
1696 2 0.002 -0.0554229 -0.135992 -9.74755e-05 2.70903e-11 -2.71541e-10 4.99477e-10 1.29934e-06 6.17374e-10 1.33602e-09
1847 2 0.002 -0.0484959 -0.135992 -4.30234e-05 4.68261e-10 -4.92844e-10 7.6837e-10 2.27248e-06 6.91586e-10 1.23427e-09
1925 2 0.002 -0.0449945 -0.125983 -0.000589372 3.73419e-10 -1.11452e-09 9.29973e-10 2.69215e-06 1.72111e-09 5.12174e-09
2001 2 0.002 -0.0415463 -0.127986 -0.000131134 6.41025e-10 -7.85113e-10 3.01735e-10 2.52569e-06 1.48201e-09 4.78291e-09
1924 2 0.002 -0.0450144 -0.129984 -0.000230982 8.03906e-10 -1.16819e-09 -1.74416e-09 3.99809e-06 1.03006e-09 2.98591e-09
1923 2 0.002 -0.0450314 -0.13399 2.6668e-05 7.02754e-10 -6.94768e-10 1.46836e-09 2.63707e-06 1.59098e-09 1.81619e-09
3502 2 0.002 0.0242105 -0.125881 -0.00105686 -6.57472e-10 -3.67026e-10 -1.67209e-09 1.17704e-05 5.15747e-09 2.19247e-08
3344 2 0.002 0.0172902 -0.12588 -0.000183456 -7.59737e-10 5.862e-10 1.65448e-09 9.92805e-06 1.80381e-09 1.71236e-08
3422 2 0.002 0.0207591 -0.131906 -0.000331453 -4.18536e-10 7.58039e-10 3.76689e-09 4.01097e-06 8.12694e-10 1.04055e-08
3423 2 0.002 0.020753 -0.127885 -0.000540104 -9.87808e-10 2.84364e-10 -1.29124e-09 9.62779e-06 1.7225e-09 1.45687e-08
3501 2 0.002 0.0242214 -0.1299 -0.000693277 -7.539e-10 2.33715e-12 -1.55857e-09 9.14445e-06 1.67866e-09 1.43363e-08
3579 2 0.002 0.0276952 -0.13192 -0.000628328 -4.92241e-10 -4.44775e-11 3.98726e-10 4.32764e-06 1.80903e-09 1.58236e-08
3580 2 0.002 0.0276842 -0.127903 -0.00104796 -3.3169e-10 -4.6475e-10 -1.51917e-10 1.08914e-05 3.8099e-09 2.47336e-08
3499 2 0.002 0.0242337 -0.137945 -0.000203388 -3.7453e-11 4.03862e-10 -5.22391e-11 6.69228e-06 5.1562e-10 8.63022e-09
3578 2 0.002 0.0277003 -0.135939 -0.000332721 -3.39979e-10 1.6613e-11 -7.55652e-10 7.01196e-06 9.43024e-10 9.57601e-09
3421 2 0.002 0.0207651 -0.135929 -0.000155407 -3.22769e-10 5.92818e-10 -2.56443e-09 7.01325e-06 4.70939e-10 8.70169e-09
3500 2 0.002 0.0242288 -0.133921 -0.000406108 -4.03779e-10 3.86186e-10 9.20206e-10 3.79099e-06 9.13333e-10 1.0464e-08
3656 2 0.002 0.0311711 -0.137958 -0.000149073 -3.71642e-10 -1.53159e-10 -1.90338e-10 6.30391e-06 1.64826e-09 7.69518e-09
3657 2 0.002 0.0311704 -0.133943 -0.000389326 -4.59985e-10 -2.17015e-10 2.13013e-10 2.81006e-06 1.47325e-09 1.87927e-08
3658 2 0.002 0.0311595 -0.129928 -0.000782084 -2.24004e-10 -5.6003e-10 -4.59269e-10 3.29842e-06 1.87286e-09 2.64429e-08
3577 2 0.002 0.0277036 -0.13996 -0.000152033 -1.79409e-10 6.85769e-11 1.08323e-09 2.97053e-06 6.44007e-10 6.93548e-09
3659 2 0.002 0.0311483 -0.125914 -0.00129025 2.68576e-10 -1.02847e-09 -8.23652e-10 6.1441e-06 5.0109e-09 3.54488e-08
3343 2 0.002 0.0172917 -0.129897 -0.000109354 -8.54019e-10 6.68496e-10 1.52761e-09 8.38082e-06 9.49115e-10 1.09313e-08
3342 2 0.002 0.0172969 -0.133918 -6.07286e-06 -8.64754e-10 5.46993e-10 -5.58902e-09 7.3612e-06 4.95692e-10 8.61672e-09
3420 2 0.002 0.02077 -0.139955 -3.66287e-05 6.24511e-10 6.36227e-10 -3.93853e-10 6.52343e-06 3.55235e-10 7.76025e-09
3736 2 0.002 0.0346175 -0.12794 -0.00082296 2.39245e-10 -8.91283e-10 -1.19255e-09 3.54481e-06 1.10026e-09 3.41187e-08
3814 2 0.002 0.0380728 -0.125949 -0.000752785 5.67654e-10 -8.341e-10 -1.53454e-09 3.34882e-06 1.72977e-09 2.78614e-08
3968 2 0.002 0.0450075 -0.125975 -0.000371285 2.16268e-10 -5.39029e-10 1.49829e-10 0.00747306 1.72638e-09 9.39543e-09
3735 2 0.002 0.0346305 -0.131956 -0.000364448 -3.42492e-10 -3.77103e-10 7.75152e-10 2.44502e-06 1.43459e-09 3.29791e-08
3891 2 0.002 0.0415372 -0.127977 -0.000338471 1.95826e-10 -6.23262e-10 -2.20612e-10 3.10922e-06 1.71159e-09 2.3468e-08
3813 2 0.002 0.0380813 -0.12997 -0.000331512 -1.1091e-10 -3.95053e-10 1.59619e-09 2.57063e-06 1.26902e-09 3.58681e-08
3967 2 0.002 0.0450057 -0.129992 -0.000101895 -5.57643e-11 -5.44739e-10 6.09102e-10 8.10361e-06 1.71404e-09 1.16895e-08
4341 2 0.002 0.0624146 -0.132057 -0.000782105 3.78483e-10 3.59128e-10 2.00842e-09 3.03638e-06 5.90693e-08 2.73631e-08
4342 2 0.002 0.0624464 -0.128087 -0.00119201 -1.08651e-11 -3.46407e-10 -1.9177e-11 6.00363e-06 5.28492e-08 1.14795e-07
4268 2 0.002 0.0589344 -0.130029 -0.000795184 3.23123e-11 -2.9311e-10 1.18523e-09 2.72649e-06 1.30884e-08 1.60711e-08
4194 2 0.002 0.055452 -0.128007 -0.000619654 -2.97492e-10 -5.93249e-10 -1.42943e-09 3.68849e-06 2.24163e-09 1.21365e-08
4267 2 0.002 0.0589114 -0.134002 -0.000347604 9.84879e-11 -1.61587e-10 -2.90135e-10 1.45823e-06 7.76134e-09 6.38121e-09
4269 2 0.002 0.0589483 -0.126032 -0.000846221 -2.79027e-10 -5.92527e-10 5.199e-10 3.6154e-06 4.86719e-09 3.56824e-08
4192 2 0.002 0.0554299 -0.135992 -0.000129071 2.40219e-11 -1.35214e-10 8.34684e-11 1.71645e-06 1.9265e-09 2.30585e-09
4119 2 0.002 0.05197 -0.125992 -0.000458538 -1.00449e-10 -5.62248e-10 9.31467e-10 6.88834e-06 1.38765e-09 8.6535e-09
4193 2 0.002 0.0554387 -0.132 -0.000425654 -1.04263e-10 -4.3986e-10 -8.48808e-10 2.80566e-06 2.38853e-09 7.95952e-09
4043 2 0.002 0.0484837 -0.127987 -0.000292852 -7.42432e-11 -6.20463e-10 -1.23005e-09 0.00681023 1.17649e-09 7.14073e-09
4118 2 0.002 0.0519611 -0.129995 -0.000350929 -6.83379e-11 -4.85562e-10 1.56169e-09 6.43334e-06 1.0611e-09 8.07366e-09
4117 2 0.002 0.0519546 -0.133995 -0.000145574 -1.17546e-10 -3.20086e-10 4.69061e-10 2.76912e-06 1.03542e-09 6.00149e-09
4042 2 0.002 0.0484787 -0.131995 -7.13875e-05 -2.30685e-10 -5.60718e-10 -9.21718e-10 6.84365e-06 1.84586e-09 8.32959e-09
76 1 0.015 0.066733 -0.131648 -0.00306019 1.71019e-07 1.06198e-07 3.59661e-10 -7.57802e-06 0 1.87339e-06
4414 2 0.002 0.0659655 -0.130225 -0.00152513 7.74994e-10 2.79177e-10 -1.83874e-10 4.70467e-05 1.67597e-07 2.04878e-06
4415 2 0.002 0.0658894 -0.126097 -0.00112915 -2.29047e-10 -3.04122e-10 -9.36035e-12 6.17526e-06 5.35733e-08 1.42165e-07
4486 2 0.002 0.0693191 -0.128065 -0.000729054 2.96202e-10 -1.44302e-10 -1.04815e-09 4.12567e-06 5.76145e-08 3.36484e-08
4557 2 0.002 0.0727557 -0.12601 -0.000227581 -2.25268e-10 -2.73872e-10 5.63838e-11 6.74086e-07 6.53505e-09 9.68722e-09
1479 2 0.002 -0.0658112 -0.122009 -0.000461103 -6.52474e-10 -3.57326e-10 -5.52004e-10 3.32266e-06 3.55128e-09 1.30481e-08
1407 2 0.002 -0.069281 -0.124002 -0.00034423 -6.40685e-10 7.93914e-11 -7.7899e-10 3.58508e-06 4.97024e-09 2.48612e-09
1408 2 0.002 -0.0692599 -0.119995 -9.88966e-05 -4.69732e-10 -5.39686e-13 1.34537e-09 4.55272e-06 1.26381e-09 3.31544e-09
1480 2 0.002 -0.0657848 -0.117997 -0.000128187 -4.81657e-10 -3.57628e-10 -3.29346e-10 5.88289e-06 8.84199e-10 6.31913e-09
1337 2 0.002 -0.0727338 -0.121991 -3.7104e-05 -5.07833e-10 3.32904e-10 1.85341e-10 3.05298e-06 1.30017e-09 1.40742e-09
1267 2 0.002 -0.0762058 -0.123993 1.82336e-05 -3.17432e-10 2.9241e-10 5.65207e-10 2.34877e-06 6.36315e-10 1.01401e-09
1626 2 0.002 -0.0588531 -0.11798 -0.000647877 -2.76794e-10 -1.54951e-09 2.08327e-09 3.03365e-06 2.31434e-09 6.68253e-09
1851 2 0.002 -0.0484386 -0.119986 -0.00134886 -2.72557e-10 -1.74271e-09 -1.11683e-09 7.71768e-06 5.10319e-09 9.429e-09
1552 2 0.002 -0.062334 -0.119992 -0.000518966 -5.5892e-10 -9.01732e-10 -7.08095e-10 5.7852e-06 2.09399e-09 6.52732e-09
1776 2 0.002 -0.0519092 -0.117975 -0.00127281 -4.02062e-10 -1.80022e-09 -3.51964e-10 7.73912e-06 5.32759e-09 1.19739e-08
1778 2 0.002 -0.0518863 -0.109982 -0.00106127 -6.44287e-10 -1.13156e-09 -1.25996e-09 6.51194e-06 4.85774e-09 4.76399e-08
1777 2 0.002 -0.0518998 -0.113972 -0.00131445 -2.46637e-10 -1.61738e-09 1.53621e-09 5.20006e-06 6.85909e-09 2.37674e-08
1852 2 0.002 -0.0484313 -0.115987 -0.00176408 -3.97041e-10 -1.38741e-09 9.16418e-10 1.20162e-05 1.82836e-08 2.724e-08
1853 2 0.002 -0.048432 -0.111984 -0.00187659 -7.71282e-10 -1.1277e-09 -7.73752e-10 1.67403e-05 4.02931e-08 6.21469e-08
1700 2 0.002 -0.0553902 -0.119978 -0.000954524 -3.71729e-10 -1.71298e-09 7.67173e-11 3.00062e-06 2.98415e-09 7.56207e-09
1775 2 0.002 -0.051921 -0.121981 -0.00105646 -1.69506e-10 -1.70149e-09 8.20452e-10 5.85443e-06 2.16126e-09 6.34048e-09
1850 2 0.002 -0.0484534 -0.123983 -0.00092432 8.8765e-11 -1.45071e-09 1.13409e-09 5.6976e-06 1.56703e-09 5.38504e-09
1701 2 0.002 -0.0553739 -0.115972 -0.000903538 -5.76543e-10 -1.65058e-09 -1.50727e-09 7.38878e-06 3.40433e-09 1.09004e-08
1702 2 0.002 -0.0553547 -0.111978 -0.000651406 -2.35212e-10 -1.53379e-09 5.09458e-10 9.42504e-06 2.17411e-09 2.12065e-08
1627 2 0.002 -0.0588291 -0.113982 -0.000357875 -5.10769e-10 -1.16874e-09 -1.9405e-09 7.30075e-06 1.76164e-09 9.61853e-09
1551 2 0.002 -0.0623606 -0.124006 -0.000698135 -5.51274e-10 -8.42273e-10 8.43575e-10 3.22865e-06 4.11904e-09 1.28457e-08
1625 2 0.002 -0.0588739 -0.121988 -0.000770075 -5.1732e-10 -1.37339e-09 -1.28374e-09 5.54794e-06 2.32933e-09 7.41491e-09
1699 2 0.002 -0.0554028 -0.123985 -0.000845194 -2.24472e-10 -1.52391e-09 6.77061e-10 2.49609e-06 1.50775e-09 5.16282e-09
1553 2 0.002 -0.0623072 -0.11599 -0.000194767 -3.94923e-10 -9.12906e-10 -1.44117e-10 6.2463e-06 1.35226e-09 5.98747e-09
24 1 0.015 -0.0439578 -0.112546 -0.00457316 -1.61128e-08 1.48846e-08 -3.88319e-09 -5.23378e-06 0 1.22386e-06
1929 2 0.002 -0.0449602 -0.110007 -0.00243171 -8.60472e-10 -5.05354e-10 -4.00751e-10 3.31503e-05 5.45839e-08 6.91873e-07
1926 2 0.002 -0.0449727 -0.121988 -0.00105611 1.48163e-11 -1.32774e-09 -4.89924e-10 7.49829e-06 4.07895e-09 1.02617e-08
2160 2 0.002 -0.0345619 -0.112076 -0.00067685 -9.70001e-10 3.42696e-10 8.86207e-10 3.58093e-06 6.72195e-09 4.92806e-08
2083 2 0.002 -0.0380018 -0.110079 -0.00151773 -8.77696e-10 1.05476e-10 -4.56391e-10 6.88528e-06 2.16978e-08 5.35344e-08
2081 2 0.002 -0.0380344 -0.118017 -0.000794121 -9.37232e-11 -4.11415e-10 -1.37333e-09 5.79387e-06 4.41989e-09 4.87834e-08
1927 2 0.002 -0.0449534 -0.118004 -0.00167061 -3.96947e-10 -1.05298e-09 6.79431e-10 1.18821e-05 1.78691e-08 2.62811e-08
1928 2 0.002 -0.0449508 -0.114029 -0.00245205 -7.30212e-10 -9.01119e-10 -2.14665e-10 2.48522e-05 5.12963e-08 2.97825e-07
2003 2 0.002 -0.0414958 -0.120001 -0.00105938 -2.95582e-10 -5.84608e-10 1.17194e-09 4.83964e-06 5.7874e-09 2.14119e-08
2004 2 0.002 -0.0414686 -0.116031 -0.00174158 -6.00936e-10 -5.90824e-10 -3.659e-11 1.58142e-05 4.016e-08 6.07963e-08
2005 2 0.002 -0.04145 -0.112055 -0.00239049 -9.2657e-10 -3.31539e-10 -1.31915e-10 3.03097e-05 5.36441e-08 5.48865e-07
2082 2 0.002 -0.0380061 -0.114054 -0.00135025 -7.2359e-10 -8.01935e-11 -2.29475e-10 7.93739e-06 1.86105e-08 1.01223e-07
2159 2 0.002 -0.0345936 -0.116034 -0.000259434 -4.82692e-10 1.5885e-10 -1.58469e-10 4.02174e-06 1.98206e-09 7.0103e-08
2080 2 0.002 -0.0380623 -0.121992 -0.000274467 -2.2538e-11 -2.50524e-10 7.00919e-10 8.17051e-06 2.10493e-09 1.80742e-08
2002 2 0.002 -0.0415227 -0.123987 -0.000524389 3.60779e-10 -9.09466e-10 -7.88298e-10 6.65277e-06 2.49999e-09 8.68749e-09
2238 2 0.002 -0.0311014 -0.110091 -0.00015811 -6.03124e-10 3.73341e-10 3.81984e-11 4.15362e-06 4.67691e-09 2.08971e-08
3425 2 0.002 0.0207482 -0.119855 -0.000764259 1.9158e-10 -5.10963e-11 1.3803e-09 1.50205e-05 5.0819e-09 4.39955e-08
3426 2 0.002 0.0207557 -0.115858 -0.000525262 3.73986e-10 -1.83477e-10 -6.42221e-10 1.66823e-05 4.09039e-09 6.33699e-08
3503 2 0.002 0.0242027 -0.121861 -0.00142253 3.32514e-10 -4.39817e-10 2.05453e-09 1.76618e-05 1.90342e-08 5.91894e-08
3504 2 0.002 0.0242009 -0.117849 -0.00145109 8.47532e-10 -8.83806e-10 1.89497e-10 2.20414e-05 3.67183e-08 9.66205e-08
3505 2 0.002 0.0242088 -0.113849 -0.000995294 1.26144e-09 -1.15636e-09 1.56661e-10 1.06265e-05 1.4251e-08 1.11214e-07
3582 2 0.002 0.0276632 -0.119879 -0.0022915 6.94811e-10 -1.78633e-09 -7.20294e-10 3.22675e-05 5.17083e-08 6.11787e-07
3583 2 0.002 0.0276643 -0.115849 -0.00200381 1.37176e-09 -1.91689e-09 -2.22869e-09 3.85588e-05 4.59473e-08 8.92286e-07
3584 2 0.002 0.0276629 -0.11185 -0.00102981 1.39304e-09 -1.96847e-09 2.18777e-09 1.03457e-05 1.39836e-08 1.08969e-07
20 1 0.015 0.0298279 -0.119197 -0.00430364 2.74798e-08 -1.63791e-07 -2.35455e-08 -5.51485e-06 0 1.56574e-06
3581 2 0.002 0.0276699 -0.123889 -0.00160314 3.03812e-10 -6.69068e-10 2.36576e-09 1.53846e-05 2.08589e-08 4.41293e-08
3427 2 0.002 0.0207656 -0.11187 -4.29584e-05 7.19778e-10 -3.30287e-10 -4.21167e-10 7.82331e-06 2.77553e-09 5.74859e-08
3424 2 0.002 0.0207497 -0.123866 -0.00072629 -7.56559e-10 9.96439e-11 -1.03826e-09 1.23758e-05 4.00102e-09 2.78027e-08
3345 2 0.002 0.0172924 -0.121869 -0.000164109 -8.33112e-10 5.02303e-10 -9.191e-10 1.16182e-05 1.98022e-09 2.6066e-08
3506 2 0.002 0.0242178 -0.109858 -0.000254783 1.26088e-09 -1.1156e-09 1.57706e-09 7.93059e-06 4.55543e-09 5.61678e-08
3663 2 0.002 0.0311287 -0.109864 -0.000619974 1.02491e-09 -8.54571e-10 1.44579e-10 1.56254e-05 4.60177e-09 5.73156e-08
3662 2 0.002 0.0311283 -0.113854 -0.0014785 1.13577e-09 -1.86403e-09 1.21196e-09 2.05189e-05 3.52368e-08 8.22806e-08
3660 2 0.002 0.031146 -0.121901 -0.00185279 7.81575e-10 -1.26848e-09 -2.25846e-10 1.63083e-05 4.00485e-08 4.87134e-08
3661 2 0.002 0.0311561 -0.117869 -0.00227181 1.43175e-09 -1.76223e-09 -3.4428e-09 2.90319e-05 5.02702e-08 4.18294e-07
3737 2 0.002 0.0346107 -0.123922 -0.00127835 4.63353e-10 -8.05972e-10 1.81476e-09 6.08004e-06 4.66038e-09 3.51765e-08
3816 2 0.002 0.0380666 -0.117906 -0.00105025 1.12757e-09 -4.93053e-10 1.56308e-11 1.11843e-05 4.55873e-09 1.96103e-08
3739 2 0.002 0.0345975 -0.115877 -0.00141985 9.75906e-10 -1.08871e-09 1.04882e-09 1.62501e-05 1.72219e-08 4.58239e-08
3738 2 0.002 0.0346101 -0.119897 -0.00158666 6.91621e-10 -9.58015e-10 2.2675e-09 1.46051e-05 1.95472e-08 3.92854e-08
3740 2 0.002 0.0345917 -0.111877 -0.000820299 8.6996e-10 -9.20425e-10 2.28295e-09 1.39136e-05 4.61641e-09 3.42073e-08
3818 2 0.002 0.038064 -0.109903 -0.000243387 1.03246e-09 5.33925e-10 -2.17564e-09 1.07947e-05 1.57545e-09 1.90983e-08
3817 2 0.002 0.0380607 -0.1139 -0.000740339 1.07017e-09 -2.30328e-10 3.9363e-10 1.17459e-05 3.29445e-09 2.3095e-08
3894 2 0.002 0.0415348 -0.115922 -0.000543524 1.10446e-09 9.08748e-11 -7.56738e-10 9.39172e-06 1.52617e-09 1.38253e-08
3895 2 0.002 0.0415362 -0.111923 -0.000188203 9.53479e-10 4.70529e-10 -1.88449e-10 4.92059e-06 1.14506e-09 1.60688e-08
3892 2 0.002 0.0415353 -0.123954 -0.000621535 5.72765e-10 -5.23207e-10 -1.09348e-10 4.32284e-06 2.2471e-09 1.56288e-08
3893 2 0.002 0.0415355 -0.119934 -0.000704162 1.05461e-09 -2.80887e-10 -1.77553e-09 8.76824e-06 2.06426e-09 1.28371e-08
3815 2 0.002 0.0380689 -0.121927 -0.00103124 8.8609e-10 -6.78001e-10 -1.45093e-10 1.05314e-05 3.67179e-09 2.31826e-08
3969 2 0.002 0.0450099 -0.121958 -0.000476772 4.54428e-10 -3.23871e-10 1.53842e-09 7.40057e-06 1.86085e-09 9.06539e-09
3970 2 0.002 0.0450108 -0.117945 -0.000376197 6.27261e-10 -1.61947e-11 1.63022e-09 3.9392e-06 1.35785e-09 9.79262e-09
3971 2 0.002 0.0450112 -0.113942 -8.63787e-05 7.69791e-10 4.25609e-10 7.9606e-10 4.30236e-06 8.02485e-10 1.16343e-08
4343 2 0.002 0.0624166 -0.124049 -0.000891058 -4.8178e-10 -6.67473e-10 8.64125e-10 4.02024e-06 1.27391e-08 3.49542e-08
4195 2 0.002 0.0554592 -0.124004 -0.000570135 -3.07117e-10 -5.82406e-10 -2.54689e-10 8.20023e-06 2.12027e-09 1.5804e-08
4270 2 0.002 0.0589365 -0.122018 -0.000577561 -5.34575e-10 -5.83538e-10 -3.66313e-10 4.60832e-06 2.20256e-09 1.89829e-08
4344 2 0.002 0.0624004 -0.120026 -0.000436926 -7.40975e-10 -7.18943e-10 3.69187e-10 3.14833e-06 1.55445e-09 2.0737e-08
4271 2 0.002 0.058926 -0.118009 -0.000169801 -5.16428e-10 -4.84225e-10 -1.84574e-10 4.14518e-06 4.57368e-10 1.36994e-08
4196 2 0.002 0.0554543 -0.119997 -0.000311988 -2.96507e-10 -3.71056e-10 -5.91546e-10 3.9271e-06 1.16132e-09 1.24138e-08
4044 2 0.002 0.0484889 -0.123977 -0.000396983 1.32738e-10 -4.33444e-10 -7.30149e-10 0.0068156 1.60468e-09 7.51282e-09
4120 2 0.002 0.051974 -0.121984 -0.000385579 -2.71457e-11 -4.39969e-10 8.85638e-10 7.19766e-06 1.56578e-09 9.8593e-09
4045 2 0.002 0.0484909 -0.119966 -0.000316998 3.90084e-10 -3.95616e-11 -2.33152e-09 7.12232e-06 1.51998e-09 8.51423e-09
4046 2 0.002 0.0484896 -0.115961 -5.01543e-05 5.61125e-10 3.32023e-10 -1.02727e-09 7.68322e-06 1.0013e-09 9.21647e-09
4121 2 0.002 0.0519715 -0.117979 -0.000129066 9.44867e-11 -1.47238e-10 7.61945e-10 7.4153e-06 1.16814e-09 9.64022e-09
4345 2 0.002 0.0623925 -0.116015 2.92077e-05 -6.72415e-10 -5.42332e-10 -8.00369e-10 4.07749e-06 4.35319e-10 1.33086e-08
4197 2 0.002 0.0554475 -0.115995 8.27099e-05 -1.24036e-10 -1.3057e-10 -5.63846e-11 7.72945e-06 5.10897e-10 1.07468e-08
4487 2 0.002 0.0693198 -0.124032 -0.000600385 -6.56458e-10 -5.7167e-10 1.15288e-09 2.66419e-06 1.41713e-08 2.61594e-08
4416 2 0.002 0.0658667 -0.122045 -0.000637912 -7.13314e-10 -5.19487e-10 -8.07077e-10 3.76561e-06 3.6245e-09 4.62164e-08
4488 2 0.002 0.0693227 -0.120018 -0.000207977 -9.0479e-10 -7.12385e-10 -5.03863e-10 2.516e-06 1.84465e-09 1.86805e-08
4417 2 0.002 0.0658611 -0.118023 -0.00015839 -9.15883e-10 -7.92463e-10 2.02096e-10 2.88524e-06 1.06631e-09 1.92458e-08
4558 2 0.002 0.0727759 -0.122005 -7.98771e-05 -6.81229e-10 -5.55938e-10 -1.01483e-09 1.65852e-06 3.17434e-09 1.579e-08
637 2 0.002 -0.110825 -0.0959878 -0.000132682 2.80993e-11 -1.72297e-10 -3.1407e-10 8.11847e-06 1.18965e-09 1.4963e-08
694 2 0.002 -0.107353 -0.0979847 -0.000220914 7.8528e-11 -2.02515e-10 -6.96652e-10 9.44922e-06 1.53417e-09 2.25749e-08
695 2 0.002 -0.107328 -0.0939754 -0.000402686 2.34254e-10 -2.98292e-10 1.53494e-09 4.81227e-06 9.95947e-10 2.25435e-08
816 2 0.002 -0.100351 -0.0939484 -0.000919186 1.16968e-10 -1.08885e-10 -9.79752e-10 1.26041e-05 2.47527e-09 4.17115e-08
754 2 0.002 -0.103854 -0.0959673 -0.000544164 2.29822e-10 -1.74258e-10 5.16492e-10 5.35539e-06 1.01822e-09 3.08083e-08
878 2 0.002 -0.0968806 -0.0959391 -0.000877093 1.9831e-10 2.93541e-10 3.40186e-10 1.23969e-05 3.25061e-09 3.46951e-08
877 2 0.002 -0.0969228 -0.099947 -0.000459586 2.50879e-10 2.03166e-10 -3.81254e-10 3.27046e-06 1.48681e-09 2.27708e-08
753 2 0.002 -0.103887 -0.0999797 -0.000259363 1.42883e-10 -1.11344e-10 -3.08818e-10 5.19017e-06 1.77983e-09 2.99673e-08
814 2 0.002 -0.100424 -0.101967 -0.00025114 1.92208e-10 6.04073e-11 3.07295e-10 3.1347e-06 1.49267e-09 2.63542e-08
815 2 0.002 -0.100387 -0.0979562 -0.000573869 2.42164e-10 2.47032e-11 2.16304e-10 3.56904e-06 1.12489e-09 3.18622e-08
813 2 0.002 -0.100444 -0.105978 -7.28954e-05 1.01036e-10 5.41108e-11 -2.55371e-10 3.22731e-06 9.66407e-10 1.00968e-08
876 2 0.002 -0.0969565 -0.103959 -0.000169612 2.22761e-10 2.19325e-10 2.24559e-10 3.6885e-06 1.18245e-09 1.20846e-08
875 2 0.002 -0.0969841 -0.107977 -2.90165e-05 1.36366e-10 1.34791e-10 -2.47654e-10 1.78696e-06 1.51301e-09 8.31995e-09
1072 2 0.002 -0.0864434 -0.0939404 -0.000251676 -7.72775e-11 8.62012e-10 -8.64765e-11 1.3762e-05 3.36482e-09 3.33343e-08
941 2 0.002 -0.0934221 -0.0979341 -0.000578236 2.14926e-10 4.88358e-10 -1.87154e-10 1.14291e-05 2.90109e-09 2.43869e-08
942 2 0.002 -0.0933706 -0.0939253 -0.00110867 1.04723e-10 5.48688e-10 1.79666e-10 1.59832e-05 9.59369e-09 4.70441e-08
1006 2 0.002 -0.0899267 -0.0959319 -0.000537959 1.52568e-10 6.67679e-10 -5.35576e-10 1.29432e-05 3.31914e-09 2.57569e-08
940 2 0.002 -0.0934648 -0.101948 -0.000199941 2.70085e-10 4.53345e-10 -1.4193e-10 4.33659e-06 1.54021e-09 1.39793e-08
1005 2 0.002 -0.0899761 -0.0999455 -0.000128969 1.81119e-10 7.9214e-10 6.12468e-10 5.04678e-06 1.41367e-09 1.6549e-08
1779 2 0.002 -0.0518651 -0.106013 -0.000517391 -1.94703e-10 -9.35282e-10 3.33832e-10 6.90513e-06 2.08832e-09 5.79912e-08
1855 2 0.002 -0.0483979 -0.10403 -0.000701911 -3.79124e-10 -4.42196e-10 2.18027e-10 4.65482e-06 4.74784e-09 4.63932e-08
1854 2 0.002 -0.0484203 -0.107995 -0.00147 -7.83447e-10 -6.21825e-10 -1.27728e-09 9.04549e-06 1.88857e-08 1.00318e-07
1703 2 0.002 -0.0553331 -0.108004 -0.000192688 -1.40332e-10 -1.13572e-09 -6.67207e-11 5.75625e-06 1.19952e-09 3.91968e-08
1930 2 0.002 -0.0449507 -0.10603 -0.00148606 -7.0088e-10 -1.86715e-10 -3.31163e-10 8.62523e-06 2.01964e-08 7.20259e-08
2006 2 0.002 -0.0414769 -0.10805 -0.00182915 -7.54574e-10 1.5688e-10 -1.52214e-09 1.65101e-05 4.29728e-08 4.0774e-08
2084 2 0.002 -0.0379994 -0.106079 -0.00126568 -9.04953e-10 1.75287e-10 1.32618e-09 8.84734e-06 9.79712e-09 1.39442e-08
2162 2 0.002 -0.0345091 -0.104099 -0.000934604 -5.88957e-10 4.29159e-10 -7.00363e-10 2.88379e-06 7.46468e-09 7.2735e-09
2007 2 0.002 -0.0414679 -0.10406 -0.00116087 -7.15805e-10 1.57472e-10 5.61623e-10 1.10839e-05 6.99021e-09 2.16712e-08
2161 2 0.002 -0.0345379 -0.108098 -0.000893818 -5.91255e-10 3.09178e-10 -1.00431e-09 2.57043e-06 8.69987e-09 1.93973e-08
2164 2 0.002 -0.0344379 -0.0960985 -0.000618365 -2.0614e-10 7.13474e-10 -1.5035e-09 4.16258e-06 2.83506e-09 1.41193e-08
1931 2 0.002 -0.0449204 -0.102057 -0.00065359 -3.9254e-10 -1.91637e-10 1.97065e-09 6.25907e-06 3.47212e-09 3.36177e-08
2085 2 0.002 -0.0379763 -0.102079 -0.000900288 -6.07622e-10 4.69837e-10 8.89116e-10 7.36677e-06 4.99919e-09 8.57562e-09
2163 2 0.002 -0.0344758 -0.100096 -0.00083636 -2.64391e-10 4.14277e-10 2.40761e-09 3.16268e-06 5.22181e-09 7.90978e-09
2008 2 0.002 -0.0414329 -0.100074 -0.000524006 -6.23953e-10 8.34665e-10 -1.61221e-09 4.83077e-06 2.60525e-09 1.55747e-08
2086 2 0.002 -0.0379366 -0.0980855 -0.000483043 -5.71782e-10 1.06758e-09 -2.8325e-09 4.00661e-06 2.70014e-09 1.00873e-08
2087 2 0.002 -0.0378884 -0.094099 -3.14701e-05 4.19831e-10 3.58856e-10 4.85007e-09 9.44523e-06 1.63181e-09 1.49588e-08
2009 2 0.002 -0.0413823 -0.0960919 8.55312e-05 -7.56368e-11 5.96533e-10 2.036e-09 9.93605e-06 1.24924e-09 1.49619e-08
92 1 0.015 -0.0194908 -0.0961402 -0.00443862 4.50762e-08 1.509e-08 3.49226e-09 -7.59804e-06 0 1.62391e-06
2475 2 0.002 -0.0206378 -0.104175 -0.000256827 5.70295e-10 -3.09788e-10 -2.87591e-10 1.35348e-05 4.74888e-09 5.57141e-08
2240 2 0.002 -0.0310079 -0.10212 -0.000891213 -1.36832e-10 2.38537e-10 -2.00975e-09 5.92975e-06 7.56268e-09 6.82186e-09
2319 2 0.002 -0.0275043 -0.100157 -0.00115472 5.2565e-10 4.67193e-10 4.12926e-09 9.20608e-06 9.4571e-09 1.5484e-08
2318 2 0.002 -0.0275527 -0.104142 -0.000609433 -3.25987e-11 -1.54264e-10 -1.80942e-09 7.39033e-06 6.24614e-09 8.67355e-09
2396 2 0.002 -0.0241245 -0.10614 -1.99178e-05 -2.45467e-11 4.21736e-10 1.77244e-09 1.04746e-05 3.29233e-09 2.62349e-08
2556 2 0.002 -0.0170964 -0.0982364 -0.00136681 1.16464e-09 -4.53984e-10 4.15454e-10 1.98663e-05 4.928e-08 7.34339e-08
2477 2 0.002 -0.0204922 -0.0963321 -0.00258098 1.36074e-09 -5.63763e-10 -1.96889e-10 3.96197e-05 7.65067e-08 8.72638e-07
2398 2 0.002 -0.0240051 -0.0982223 -0.0017342 6.72275e-10 -5.90852e-10 -1.14125e-09 1.71367e-05 3.75381e-08 5.61389e-08
2476 2 0.002 -0.0205603 -0.100247 -0.00136307 9.37324e-10 -6.78757e-10 -1.14476e-09 1.78229e-05 3.23317e-08 7.97468e-08
2241 2 0.002 -0.0309736 -0.0981191 -0.00101795 -7.90889e-11 2.65436e-10 -7.54184e-10 3.96721e-06 5.57835e-09 1.36414e-08
2320 2 0.002 -0.0274792 -0.0961602 -0.00145809 4.20155e-10 -1.88692e-10 -9.13129e-10 1.26459e-05 9.02071e-09 3.29671e-08
2397 2 0.002 -0.0240545 -0.10219 -0.000923178 5.13055e-10 -3.41044e-10 -6.51271e-10 1.13146e-05 1.0291e-08 2.73079e-08
2555 2 0.002 -0.0171668 -0.102183 -0.000374197 8.45685e-10 -2.75339e-10 2.73397e-10 1.49262e-05 7.72902e-09 5.26094e-08
2242 2 0.002 -0.0309471 -0.0941208 -0.000957133 3.24827e-10 1.94896e-10 1.599e-10 5.44431e-06 2.32317e-09 2.88965e-08
2399 2 0.002 -0.0239964 -0.0942241 -0.00209447 9.15601e-10 -6.929e-10 -4.85714e-10 2.21481e-05 5.43264e-08 1.12398e-07
2557 2 0.002 -0.0170533 -0.0942536 -0.00207935 1.44531e-09 -5.45815e-10 7.71314e-10 3.03067e-05 5.37044e-08 3.38336e-07
2239 2 0.002 -0.0310514 -0.106115 -0.00058801 -6.45827e-10 5.09341e-10 1.48402e-09 3.03192e-06 7.12434e-09 7.40789e-09
2317 2 0.002 -0.0276173 -0.108109 5.98759e-05 -2.39347e-10 2.34759e-10 -1.9872e-10 8.38044e-06 4.11138e-09 1.14452e-08
2635 2 0.002 -0.0137247 -0.100142 -0.000172097 1.08125e-09 -1.6782e-10 5.32583e-10 1.48895e-05 4.77626e-09 4.01499e-08
2636 2 0.002 -0.0136867 -0.0961565 -0.000832892 1.33124e-09 -2.92491e-10 5.44374e-10 1.76437e-05 1.42198e-08 4.96366e-08
2716 2 0.002 -0.0102998 -0.0940729 -0.000102016 1.57096e-09 -6.00632e-12 -7.75457e-10 1.48682e-05 2.70507e-09 3.36011e-08
3585 2 0.002 0.027679 -0.107862 -0.000131216 9.33436e-10 -5.90255e-10 -6.65832e-10 5.13135e-06 3.15217e-09 6.56384e-08
3741 2 0.002 0.0345974 -0.107886 -0.000130552 8.00153e-10 2.56975e-10 -1.45772e-09 1.18961e-05 1.56755e-09 2.80408e-08
4967 2 0.002 0.0936041 -0.0939735 -0.00044506 -5.2084e-10 -7.66974e-11 1.75474e-11 3.71699e-06 1.43149e-10 8.91587e-09
4966 2 0.002 0.0935927 -0.0979811 -0.000172351 -5.88925e-10 -2.67729e-10 -8.67612e-11 2.06115e-06 4.8795e-10 9.96973e-09
4902 2 0.002 0.0901424 -0.0959702 3.42873e-05 -4.67951e-10 -5.14246e-12 -3.51303e-10 3.39516e-06 1.78353e-10 1.02668e-08
5091 2 0.002 0.100496 -0.101996 -0.000353576 -2.36095e-10 -1.63536e-10 -5.49376e-11 8.95539e-07 5.49194e-09 6.0141e-09
5153 2 0.002 0.103994 -0.100043 -0.000743027 1.73061e-11 1.95578e-10 1.18433e-09 3.8189e-06 3.49009e-08 2.02781e-08
5213 2 0.002 0.107532 -0.0981658 -0.00137239 3.3209e-10 8.61382e-11 -8.27294e-10 2.44373e-05 1.00502e-07 5.07271e-07
5030 2 0.002 0.0970634 -0.0959952 -0.000671389 -5.04763e-10 -3.11308e-10 2.90533e-10 7.3234e-06 9.75693e-10 9.62446e-09
5092 2 0.002 0.100528 -0.0980208 -0.000831958 -4.2353e-10 -4.11187e-10 -1.16806e-09 7.15237e-06 7.21235e-09 1.15262e-08
5093 2 0.002 0.100544 -0.0940324 -0.00116407 -3.5191e-10 -3.96511e-10 8.37748e-10 1.0165e-05 3.56078e-09 2.23043e-08
5154 2 0.002 0.10403 -0.0960891 -0.00135918 3.07354e-11 -1.1444e-10 1.0197e-09 1.36974e-05 3.9761e-08 4.18163e-08
5214 2 0.002 0.107526 -0.0941442 -0.00170273 2.72443e-11 6.11769e-11 -1.17853e-09 2.5064e-05 4.05056e-08 5.00607e-07
5029 2 0.002 0.097043 -0.0999904 -0.000351598 -4.79982e-10 -3.04613e-10 1.81949e-10 1.61353e-06 2.42764e-09 8.92226e-09
68 1 0.015 0.109078 -0.0977197 -0.00300032 6.17028e-08 8.0175e-08 -3.41884e-09 -6.04174e-06 0 9.95378e-07
5090 2 0.002 0.100466 -0.105998 -7.20407e-05 -1.80804e-10 -8.9189e-11 -4.21408e-10 -9.19764e-08 2.45166e-09 1.57249e-09
5028 2 0.002 0.0970208 -0.10399 -4.89159e-05 -4.35403e-10 -2.65189e-10 -6.09915e-11 5.63385e-07 1.58657e-09 5.53557e-09
5271 2 0.002 0.110946 -0.096087 -0.000954407 -4.82624e-10 5.11884e-10 3.06568e-09 6.44109e-06 6.84824e-08 1.54854e-07
638 2 0.002 -0.110811 -0.0919861 -0.000197295 -2.3333e-11 -3.7512e-10 -1.21053e-09 8.90928e-06 1.37072e-09 1.99414e-08
639 2 0.002 -0.110802 -0.0879823 -0.000135036 2.2754e-11 -6.27872e-10 -4.17517e-10 4.70132e-06 1.32336e-09 2.0893e-08
582 2 0.002 -0.114291 -0.0899937 -1.65866e-05 4.96404e-11 -3.18514e-10 2.80098e-09 6.50804e-06 1.61047e-09 8.53925e-09
881 2 0.002 -0.0968016 -0.0839252 -0.0013429 -2.17363e-10 3.37337e-10 -3.10718e-10 1.89683e-05 2.85913e-08 7.31752e-08
880 2 0.002 -0.0968117 -0.0879212 -0.00160675 1.07272e-10 3.05582e-10 1.26902e-09 1.97264e-05 4.0459e-08 8.2386e-08
696 2 0.002 -0.107315 -0.0899715 -0.000465875 7.38918e-11 -5.49127e-10 -4.67531e-10 3.46799e-06 8.3316e-10 2.54979e-08
697 2 0.002 -0.107305 -0.0859746 -0.000366447 2.4097e-10 -8.32017e-10 1.82212e-09 2.65511e-06 6.89012e-10 2.74866e-08