ITEM: TIMESTEP
30000
ITEM: NUMBER OF ATOMS
112
ITEM: BOX BOUNDS ff ff ff
-2.5000000000000000e-01 2.5000000000000000e-01
-2.5000000000000000e-01 2.5000000000000000e-01
-1.0000000000000001e-01 1.0000000000000001e-01
ITEM: ATOMS id type radius x y z fx fy fz v_pressure c_bendingE c_stretchingE
98 1 0.015 -0.0129115 -0.146978 0 1.73703e-13 5.67586e-15 0 -0.000318202 0 0
51 1 0.015 0.0142445 -0.143775 0 1.88722e-13 -5.50555e-14 0 -0.00020084 0 0
93 1 0.015 0.0417054 -0.141616 0 2.038e-13 1.04563e-13 0 -0.000387403 0 0
56 1 0.015 -0.067259 -0.128952 0 1.293e-13 -8.71454e-14 0 -9.65355e-05 0 0
61 1 0.015 -0.040763 -0.14011 0 1.4311e-13 -4.72842e-14 0 -0.000121425 0 0
76 1 0.015 0.0660273 -0.130255 0 1.98717e-13 1.2361e-13 0 -0.000319692 0 0
9 1 0.015 -0.0920058 -0.114438 0 1.17058e-13 -1.46163e-13 0 -0.000212452 0 0
24 1 0.015 -0.0439874 -0.112165 0 5.00533e-14 -4.17209e-14 0 -0.000186646 0 0
103 1 0.015 -0.0185968 -0.121937 0 6.31913e-14 -1.12208e-15 0 -0.000331178 0 0
20 1 0.015 0.029432 -0.118909 0 -4.86203e-14 1.49537e-14 0 -0.000283166 0 0
43 1 0.015 0.0886111 -0.115673 0 1.75787e-13 1.38831e-13 0 -0.000281534 0 0
88 1 0.015 -0.0684711 -0.10006 0 1.99456e-14 -8.1313e-14 0 -0.00019312 0 0
92 1 0.015 -0.0202776 -0.0951996 0 -2.67586e-14 1.68846e-14 0 -0.00022332 0 0
47 1 0.015 0.00484428 -0.108043 0 -1.35591e-14 8.27203e-14 0 -0.000221593 0 0
31 1 0.015 0.0544122 -0.10509 0 -7.74118e-14 2.84924e-14 0 -0.000143567 0 0
68 1 0.015 0.108332 -0.0970295 0 1.63272e-13 1.19024e-13 0 -0.000240632 0 0
37 1 0.015 -0.119702 -0.0837914 0 -4.89608e-14 1.08265e-13 0 -0.00031805 0 0
90 1 0.015 -0.0931236 -0.0870623 0 -7.14432e-14 -1.79253e-13 0 -0.000262467 0 0
33 1 0.015 -0.0452789 -0.0841267 0 -4.76552e-14 -4.37829e-14 0 -0.000202733 0 0
46 1 0.015 0.00329057 -0.0800164 0 -7.08109e-14 7.6522e-14 0 -0.000191209 0 0
45 1 0.015 0.0286338 -0.0919035 0 -6.1344e-14 5.67652e-14 0 -0.000194602 0 0
53 1 0.015 0.0784112 -0.0893742 0 -1.00864e-13 4.15476e-14 0 -0.00011315 0 0
96 1 0.015 -0.0701122 -0.0717767 0 -1.17302e-13 -1.10861e-13 0 -0.000197448 0 0
29 1 0.015 -0.0216984 -0.0677722 0 -8.17507e-14 2.8725e-14 0 -0.00021258 0 0
22 1 0.015 0.0262384 -0.0642608 0 -1.13792e-13 8.4173e-14 0 -0.000194585 0 0
52 1 0.015 0.0520728 -0.0771165 0 -9.02239e-14 6.33355e-14 0 -0.000162304 0 0
112 1 0.015 0.0993925 -0.0701642 0 -5.74024e-14 -6.61681e-16 0 -0.000240359 0 0
91 1 0.015 0.12573 -0.0756173 0 5.02391e-14 1.92519e-13 0 -0.000324473 0 0
99 1 0.015 -0.134546 -0.0606014 0 -6.8939e-14 8.36844e-14 0 -0.000295586 0 0
28 1 0.015 -0.0953486 -0.0591946 0 -1.85693e-13 -1.60607e-13 0 -0.000162256 0 0
109 1 0.015 -0.0465217 -0.0564653 0 -1.24416e-13 -8.62757e-14 0 -0.000224357 0 0
27 1 0.015 0.00123641 -0.0517683 0 -1.17e-13 9.67802e-14 0 -0.000197891 0 0
30 1 0.015 0.0486113 -0.0489347 0 -1.4389e-13 6.62021e-14 0 -0.000199512 0 0
25 1 0.015 0.0742826 -0.0609112 0 -7.84582e-14 4.90496e-14 0 -0.000242038 0 0
10 1 0.015 0.136103 -0.0508449 0 9.35248e-14 1.69147e-13 0 -0.000288518 0 0
78 1 0.015 -0.142575 -0.0321492 0 -4.33517e-14 1.02364e-13 0 -0.000115498 0 0
41 1 0.015 -0.116713 -0.0424884 0 -6.81798e-14 3.44115e-14 0 -0.00039104 0 0
16 1 0.015 -0.0711711 -0.0439776 0 -1.84736e-13 -1.36706e-13 0 -0.000200335 0 0
63 1 0.015 -0.0232257 -0.0397872 0 -1.26738e-13 3.7061e-14 0 -0.000270274 0 0
8 1 0.015 0.0232847 -0.0358101 0 -1.60379e-13 1.31324e-13 0 -0.000180882 0 0
107 1 0.015 0.0714566 -0.033917 0 -1.82109e-13 2.83137e-14 0 -0.000269574 0 0
106 1 0.015 0.108532 -0.0435926 0 5.85646e-14 -5.14299e-14 0 -0.000134759 0 0
44 1 0.015 -0.0940489 -0.0293885 0 -9.74191e-14 -3.13942e-14 0 -0.000234689 0 0
84 1 0.015 -0.0472703 -0.0290841 0 -1.99617e-13 -1.61871e-13 0 -0.000328083 0 0
110 1 0.015 -0.00210812 -0.0225028 0 -1.88948e-13 1.75564e-13 0 -0.000168428 0 0
75 1 0.015 0.0462463 -0.0208762 0 -1.47654e-13 9.34405e-14 0 -0.000195698 0 0
87 1 0.015 0.0938823 -0.0195222 0 -9.18903e-14 -1.52581e-13 0 -0.000283735 0 0
1 1 0.015 0.120255 -0.0170069 0 -8.75687e-14 9.45137e-15 0 -0.000302271 0 0
85 1 0.015 0.145063 -0.025598 0 9.99838e-15 1.86279e-13 0 -0.000380333 0 0
48 1 0.015 -0.145197 -0.00347305 0 -1.1455e-14 1.28119e-13 0 -9.42577e-05 0 0
73 1 0.015 -0.119453 -0.0155963 0 -5.46998e-14 4.3638e-14 0 -0.000192192 0 0
17 1 0.015 -0.0946041 -0.0018467 0 -6.74229e-14 -1.71442e-14 0 -0.000196846 0 0
2 1 0.015 -0.0703464 -0.015497 0 -1.24906e-13 -9.89024e-14 0 -0.000231077 0 0
34 1 0.015 -0.0446726 -0.00232363 0 -1.13172e-13 -2.10772e-13 0 -0.000233083 0 0
58 1 0.015 0.0210439 -0.00758143 0 -1.30682e-13 1.68179e-13 0 -0.000208011 0 0
60 1 0.015 0.0694077 -0.00604377 0 -6.75132e-14 -4.81438e-15 0 -0.000214373 0 0
54 1 0.015 -0.119295 0.0114892 0 -2.75397e-14 4.90101e-14 0 -0.000175556 0 0
26 1 0.015 -0.0690409 0.0116664 0 -6.52545e-14 -1.03166e-13 0 -0.000207076 0 0
42 1 0.015 -0.0173864 0.00132777 0 -1.98037e-13 2.49247e-13 0 -0.000169082 0 0
95 1 0.015 0.0443133 0.00709394 0 -3.53238e-14 9.89715e-14 0 -0.000232317 0 0
70 1 0.015 0.093344 0.00822607 0 5.0516e-15 -1.50853e-13 0 -0.000215018 0 0
18 1 0.015 0.120666 0.0105391 0 -6.9193e-15 2.65499e-14 0 -0.000249744 0 0
23 1 0.015 0.146304 0.00162205 0 1.76239e-14 1.46668e-13 0 -0.000273738 0 0
36 1 0.015 -0.143661 0.0248084 0 2.72533e-14 1.45999e-13 0 -0.000197925 0 0
19 1 0.015 -0.0928617 0.0253386 0 -2.17926e-14 -1.51953e-14 0 -0.000215484 0 0
72 1 0.015 -0.0443857 0.0250688 0 -2.77022e-14 -2.34993e-13 0 -0.000239092 0 0
5 1 0.015 -0.0178579 0.0305112 0 -1.563e-13 3.16168e-13 0 -0.00016921 0 0
94 1 0.015 0.00637425 0.0158722 0 -2.09312e-13 1.58033e-13 0 -0.00018952 0 0
102 1 0.015 0.0301125 0.0304507 0 -1.66973e-13 3.01759e-14 0 -0.000222342 0 0
77 1 0.015 0.0677215 0.0214309 0 5.11648e-14 -1.01095e-14 0 -0.000252922 0 0
81 1 0.015 0.143177 0.0293961 0 1.01034e-14 9.7452e-14 0 -0.000150698 0 0
3 1 0.015 -0.116122 0.0385082 0 9.29641e-15 4.82593e-14 0 -0.000298484 0 0
69 1 0.015 -0.0683434 0.0394722 0 2.49228e-14 -1.05323e-13 0 -0.000201983 0 0
101 1 0.015 0.0061536 0.0443443 0 -1.08021e-13 1.61255e-13 0 -0.000181862 0 0
80 1 0.015 0.0535817 0.0447454 0 -9.04679e-14 -9.31185e-14 0 -0.000259656 0 0
7 1 0.015 0.0907196 0.0355609 0 1.07458e-13 -1.32327e-13 0 -0.000310764 0 0
100 1 0.015 0.116951 0.0371653 0 5.99164e-14 2.82352e-14 0 -0.000339665 0 0
83 1 0.015 -0.138456 0.0521297 0 6.03357e-14 1.51121e-13 0 -0.000356878 0 0
15 1 0.015 -0.0920241 0.0534396 0 7.15463e-14 -1.52822e-14 0 -0.000202669 0 0
67 1 0.015 -0.0440659 0.052994 0 6.68883e-14 -2.22887e-13 0 -0.000220662 0 0
65 1 0.015 -0.0179697 0.0594184 0 -6.69448e-14 3.30499e-13 0 -0.000192831 0 0
14 1 0.015 0.0305118 0.0591242 0 -2.9523e-14 2.16097e-14 0 -0.00017902 0 0
11 1 0.015 0.0767806 0.0580841 0 -3.4714e-15 -1.92385e-13 0 -0.00035925 0 0
57 1 0.015 0.103732 0.061625 0 3.61728e-15 -4.44001e-14 0 -0.000192885 0 0
38 1 0.015 0.134883 0.0570896 0 -2.6254e-14 8.66119e-14 0 -0.000230916 0 0
82 1 0.015 -0.115929 0.0666556 0 1.24932e-13 4.22307e-14 0 -0.000273204 0 0
12 1 0.015 -0.0678347 0.0677615 0 9.76291e-14 -9.00919e-14 0 -0.000196344 0 0
49 1 0.015 0.00631316 0.0720904 0 1.60532e-14 1.29752e-13 0 -0.000214386 0 0
62 1 0.015 0.0551632 0.0740408 0 4.55065e-14 -1.09684e-13 0 -0.000190805 0 0
105 1 0.015 -0.115156 0.0928833 0 6.68734e-14 3.76578e-14 0 -0.000387926 0 0
104 1 0.015 -0.0910372 0.0816926 0 1.21443e-13 1.81098e-14 0 -0.000204401 0 0
50 1 0.015 -0.0444444 0.0815383 0 1.26224e-13 -1.6858e-13 0 -0.000209913 0 0
4 1 0.015 -0.018377 0.0880826 0 2.1668e-14 2.97233e-13 0 -0.000184468 0 0
89 1 0.015 0.0313412 0.0873215 0 9.6466e-14 9.72857e-15 0 -0.000203656 0 0
13 1 0.015 0.0844909 0.0841229 0 5.19892e-14 -1.60011e-13 0 -0.000207005 0 0
55 1 0.015 0.121869 0.0815031 0 -5.97326e-14 5.19107e-14 0 -0.000305905 0 0
40 1 0.015 -0.0680667 0.0976743 0 1.59278e-13 -2.21745e-15 0 -0.000100945 0 0
97 1 0.015 0.00649681 0.0985342 0 1.1321e-13 8.44754e-14 0 -0.000362709 0 0
74 1 0.015 0.0623635 0.101322 0 8.35929e-14 -1.22913e-13 0 -0.000211191 0 0
64 1 0.015 0.10464 0.102455 0 -6.52202e-14 2.78742e-14 0 -0.000312573 0 0
21 1 0.015 -0.0942529 0.110489 0 7.1943e-14 7.16804e-15 0 -0.000181774 0 0
32 1 0.015 -0.0424769 0.109919 0 2.31778e-13 -1.09913e-13 0 -0.000150922 0 0
6 1 0.015 -0.0151817 0.116841 0 1.75139e-13 1.84144e-13 0 -0.000138452 0 0
86 1 0.015 0.0127101 0.123263 0 1.68226e-13 3.72971e-14 0 -0.000365197 0 0
66 1 0.015 0.038308 0.1143 0 1.33791e-13 -7.57032e-15 0 -0.000224884 0 0
71 1 0.015 0.0835145 0.119567 0 -3.06262e-14 2.18223e-14 0 -0.00026046 0 0
111 1 0.015 -0.0720173 0.126175 0 2.76053e-14 9.51339e-15 0 -0.000247471 0 0
108 1 0.015 -0.0475994 0.137734 0 3.32314e-14 -6.04035e-14 0 -0.000284235 0 0
59 1 0.015 0.0594659 0.132868 0 2.58836e-14 3.66855e-14 0 -0.000213187 0 0
39 1 0.015 -0.0214882 0.144159 0 -7.30879e-15 6.83575e-14 0 -0.000297014 0 0
35 1 0.015 0.00527152 0.147608 0 7.63517e-15 -1.25428e-14 0 -0.000361763 0 0
79 1 0.015 0.0331678 0.142326 0 5.21766e-14 2.15575e-14 0 -0.000166754 0 0
