ITEM: TIMESTEP
40000
ITEM: NUMBER OF ATOMS
112
ITEM: BOX BOUNDS ff ff ff
-2.5000000000000000e-01 2.5000000000000000e-01
-2.5000000000000000e-01 2.5000000000000000e-01
-1.0000000000000001e-01 1.0000000000000001e-01
ITEM: ATOMS id type radius x y z fx fy fz v_pressure c_bendingE c_stretchingE
98 1 0.015 -0.0129115 -0.146978 0 8.9678e-16 7.72869e-16 0 -0.000318202 0 0
51 1 0.015 0.0142445 -0.143775 0 1.03388e-15 -1.0496e-16 0 -0.00020084 0 0
93 1 0.015 0.0417054 -0.141616 0 1.28068e-15 9.77097e-16 0 -0.000387403 0 0
56 1 0.015 -0.067259 -0.128952 0 8.52256e-16 6.74302e-17 0 -9.65355e-05 0 0
61 1 0.015 -0.040763 -0.14011 0 9.50828e-16 -6.12727e-16 0 -0.000121425 0 0
76 1 0.015 0.0660273 -0.130255 0 1.35937e-15 -1.28542e-16 0 -0.000319692 0 0
9 1 0.015 -0.0920058 -0.114438 0 1.08033e-15 -6.75397e-16 0 -0.000212452 0 0
24 1 0.015 -0.0439874 -0.112165 0 -2.9559e-16 -3.71413e-16 0 -0.000186646 0 0
103 1 0.015 -0.0185968 -0.121937 0 4.76373e-16 -4.51704e-16 0 -0.000331178 0 0
20 1 0.015 0.029432 -0.118909 0 -5.46219e-16 2.36819e-16 0 -0.000283166 0 0
43 1 0.015 0.0886111 -0.115673 0 9.52626e-16 5.81641e-16 0 -0.000281534 0 0
88 1 0.015 -0.0684711 -0.10006 0 4.92348e-16 -1.07846e-15 0 -0.00019312 0 0
92 1 0.015 -0.0202776 -0.0951996 0 -2.25919e-16 3.89135e-16 0 -0.00022332 0 0
47 1 0.015 0.00484428 -0.108043 0 1.99383e-16 3.86679e-16 0 -0.000221593 0 0
31 1 0.015 0.0544122 -0.10509 0 -5.96416e-16 7.26208e-16 0 -0.000143567 0 0
68 1 0.015 0.108332 -0.0970295 0 1.20798e-15 1.04584e-15 0 -0.000240632 0 0
37 1 0.015 -0.119702 -0.0837914 0 -1.87179e-16 3.98149e-16 0 -0.00031805 0 0
90 1 0.015 -0.0931236 -0.0870623 0 -6.70049e-16 -9.38642e-16 0 -0.000262467 0 0
33 1 0.015 -0.0452789 -0.0841267 0 -2.63395e-16 -6.42308e-16 0 -0.000202733 0 0
46 1 0.015 0.00329057 -0.0800164 0 -1.63265e-16 3.37945e-16 0 -0.000191209 0 0
45 1 0.015 0.0286338 -0.0919035 0 -5.20537e-16 8.15274e-16 0 -0.000194602 0 0
53 1 0.015 0.0784112 -0.0893742 0 -6.95229e-16 3.50123e-16 0 -0.00011315 0 0
96 1 0.015 -0.0701122 -0.0717767 0 -6.41528e-16 -6.00098e-16 0 -0.000197448 0 0
29 1 0.015 -0.0216984 -0.0677722 0 -4.64311e-16 5.18636e-16 0 -0.00021258 0 0
22 1 0.015 0.0262384 -0.0642608 0 -6.90702e-16 -1.51219e-16 0 -0.000194585 0 0
52 1 0.015 0.0520728 -0.0771165 0 -5.85308e-16 5.50482e-17 0 -0.000162304 0 0
112 1 0.015 0.0993925 -0.0701642 0 1.20473e-16 -1.25105e-16 0 -0.000240359 0 0
91 1 0.015 0.12573 -0.0756173 0 -1.09239e-16 1.34339e-15 0 -0.000324473 0 0
99 1 0.015 -0.134546 -0.0606014 0 -5.0272e-16 7.48897e-16 0 -0.000295586 0 0
28 1 0.015 -0.0953486 -0.0591946 0 -1.36456e-15 -9.91051e-16 0 -0.000162256 0 0
109 1 0.015 -0.0465217 -0.0564653 0 -6.30773e-16 -3.51996e-16 0 -0.000224357 0 0
27 1 0.015 0.00123641 -0.0517683 0 -7.22397e-16 5.87299e-16 0 -0.000197891 0 0
30 1 0.015 0.0486113 -0.0489347 0 -8.43177e-16 4.19908e-16 0 -0.000199512 0 0
25 1 0.015 0.0742826 -0.0609112 0 -5.51792e-16 1.84885e-16 0 -0.000242038 0 0
10 1 0.015 0.136103 -0.0508449 0 2.96656e-17 8.60425e-16 0 -0.000288518 0 0
78 1 0.015 -0.142575 -0.0321492 0 -1.33244e-15 5.38042e-16 0 -0.000115498 0 0
41 1 0.015 -0.116713 -0.0424884 0 -3.01751e-16 -1.06855e-16 0 -0.00039104 0 0
16 1 0.015 -0.0711711 -0.0439776 0 -9.72242e-16 -4.441e-16 0 -0.000200335 0 0
63 1 0.015 -0.0232257 -0.0397872 0 -7.92731e-16 5.67855e-17 0 -0.000270274 0 0
8 1 0.015 0.0232847 -0.0358101 0 -9.64862e-16 9.93693e-16 0 -0.000180882 0 0
107 1 0.015 0.0714566 -0.033917 0 -1.1563e-15 3.34235e-16 0 -0.000269574 0 0
106 1 0.015 0.108532 -0.0435926 0 7.44487e-16 -3.10289e-16 0 -0.000134759 0 0
44 1 0.015 -0.0940489 -0.0293885 0 -3.64234e-16 2.37505e-18 0 -0.000234689 0 0
84 1 0.015 -0.0472703 -0.0290841 0 -1.39144e-15 -9.54674e-16 0 -0.000328083 0 0
110 1 0.015 -0.00210812 -0.0225028 0 -1.01759e-15 1.13032e-15 0 -0.000168428 0 0
75 1 0.015 0.0462463 -0.0208762 0 -8.88084e-16 4.75775e-16 0 -0.000195698 0 0
87 1 0.015 0.0938823 -0.0195222 0 -6.60697e-16 -7.95263e-16 0 -0.000283735 0 0
1 1 0.015 0.120255 -0.0170069 0 -2.17036e-16 -1.14855e-16 0 -0.000302271 0 0
85 1 0.015 0.145063 -0.025598 0 -3.86897e-16 1.33615e-15 0 -0.000380333 0 0
48 1 0.015 -0.145197 -0.00347305 0 -2.48422e-16 7.01571e-16 0 -9.42577e-05 0 0
73 1 0.015 -0.119453 -0.0155963 0 -2.26227e-16 1.4847e-16 0 -0.000192192 0 0
17 1 0.015 -0.0946041 -0.0018467 0 -4.03136e-16 -1.59879e-16 0 -0.000196846 0 0
2 1 0.015 -0.0703464 -0.015497 0 -3.65166e-16 -6.78998e-16 0 -0.000231077 0 0
34 1 0.015 -0.0446726 -0.00232363 0 -9.73478e-16 -1.20253e-15 0 -0.000233083 0 0
58 1 0.015 0.0210439 -0.00758143 0 -8.54545e-16 8.91794e-16 0 -0.000208011 0 0
60 1 0.015 0.0694077 -0.00604377 0 -2.76785e-16 8.22507e-17 0 -0.000214373 0 0
54 1 0.015 -0.119295 0.0114892 0 -3.06692e-16 3.58071e-16 0 -0.000175556 0 0
26 1 0.015 -0.0690409 0.0116664 0 -2.78525e-16 -7.69325e-16 0 -0.000207076 0 0
42 1 0.015 -0.0173864 0.00132777 0 -1.07252e-15 1.44697e-15 0 -0.000169082 0 0
95 1 0.015 0.0443133 0.00709394 0 -2.6475e-16 5.76766e-16 0 -0.000232317 0 0
70 1 0.015 0.093344 0.00822607 0 1.14805e-16 -8.97309e-16 0 -0.000215018 0 0
18 1 0.015 0.120666 0.0105391 0 -5.5763e-17 2.1398e-16 0 -0.000249744 0 0
23 1 0.015 0.146304 0.00162205 0 -1.22431e-16 7.6369e-16 0 -0.000273738 0 0
36 1 0.015 -0.143661 0.0248084 0 2.62429e-16 7.94959e-16 0 -0.000197925 0 0
19 1 0.015 -0.0928617 0.0253386 0 -8.20891e-17 -1.42788e-16 0 -0.000215484 0 0
72 1 0.015 -0.0443857 0.0250688 0 -1.65044e-16 -1.4212e-15 0 -0.000239092 0 0
5 1 0.015 -0.0178579 0.0305112 0 -9.88949e-16 1.87081e-15 0 -0.00016921 0 0
94 1 0.015 0.00637425 0.0158722 0 -1.17114e-15 8.94959e-16 0 -0.00018952 0 0
102 1 0.015 0.0301125 0.0304507 0 -1.02058e-15 1.84651e-16 0 -0.000222342 0 0
77 1 0.015 0.0677215 0.0214309 0 3.65727e-16 -2.0223e-16 0 -0.000252922 0 0
81 1 0.015 0.143177 0.0293961 0 -2.96654e-16 7.07008e-16 0 -0.000150698 0 0
3 1 0.015 -0.116122 0.0385082 0 1.41629e-16 4.09724e-16 0 -0.000298484 0 0
69 1 0.015 -0.0683434 0.0394722 0 3.14352e-16 -3.10019e-16 0 -0.000201983 0 0
101 1 0.015 0.0061536 0.0443443 0 -5.78847e-16 1.0319e-15 0 -0.000181862 0 0
80 1 0.015 0.0535817 0.0447454 0 -5.57185e-16 -5.59745e-16 0 -0.000259656 0 0
7 1 0.015 0.0907196 0.0355609 0 6.15959e-16 -8.45127e-16 0 -0.000310764 0 0
100 1 0.015 0.116951 0.0371653 0 5.32995e-16 -1.23494e-16 0 -0.000339665 0 0
83 1 0.015 -0.138456 0.0521297 0 9.52747e-17 7.72929e-16 0 -0.000356878 0 0
15 1 0.015 -0.0920241 0.0534396 0 3.88772e-17 -7.68265e-17 0 -0.000202669 0 0
67 1 0.015 -0.0440659 0.052994 0 1.32873e-16 -1.305e-15 0 -0.000220662 0 0
65 1 0.015 -0.0179697 0.0594184 0 -3.11217e-16 2.02455e-15 0 -0.000192831 0 0
14 1 0.015 0.0305118 0.0591242 0 -2.18453e-16 -1.22889e-17 0 -0.00017902 0 0
11 1 0.015 0.0767806 0.0580841 0 1.05584e-16 -1.16851e-15 0 -0.00035925 0 0
57 1 0.015 0.103732 0.061625 0 1.335e-16 -1.17454e-17 0 -0.000192885 0 0
38 1 0.015 0.134883 0.0570896 0 -2.06328e-16 7.02432e-16 0 -0.000230916 0 0
82 1 0.015 -0.115929 0.0666556 0 1.25909e-15 8.72038e-16 0 -0.000273204 0 0
12 1 0.015 -0.0678347 0.0677615 0 6.70521e-16 -6.32846e-16 0 -0.000196344 0 0
49 1 0.015 0.00631316 0.0720904 0 8.3071e-17 5.96994e-16 0 -0.000214386 0 0
62 1 0.015 0.0551632 0.0740408 0 1.58446e-17 -2.67029e-16 0 -0.000190805 0 0
105 1 0.015 -0.115156 0.0928833 0 3.72186e-16 -2.40084e-16 0 -0.000387926 0 0
104 1 0.015 -0.0910372 0.0816926 0 6.58159e-16 8.55607e-18 0 -0.000204401 0 0
50 1 0.015 -0.0444444 0.0815383 0 7.6234e-16 -1.01646e-15 0 -0.000209913 0 0
4 1 0.015 -0.018377 0.0880826 0 8.28042e-17 1.78945e-15 0 -0.000184468 0 0
89 1 0.015 0.0313412 0.0873215 0 6.8201e-16 1.65967e-16 0 -0.000203656 0 0
13 1 0.015 0.0844909 0.0841229 0 1.89114e-16 -1.16705e-15 0 -0.000207005 0 0
55 1 0.015 0.121869 0.0815031 0 -4.77331e-16 1.33966e-16 0 -0.000305905 0 0
40 1 0.015 -0.0680667 0.0976743 0 8.59583e-16 -8.88872e-17 0 -0.000100945 0 0
97 1 0.015 0.00649681 0.0985342 0 6.5206e-16 3.39796e-16 0 -0.000362709 0 0
74 1 0.015 0.0623635 0.101322 0 4.21095e-16 -8.00692e-16 0 -0.000211191 0 0
64 1 0.015 0.10464 0.102455 0 2.48117e-16 -1.07719e-16 0 -0.000312573 0 0
21 1 0.015 -0.0942529 0.110489 0 3.73188e-16 2.85263e-16 0 -0.000181774 0 0
32 1 0.015 -0.0424769 0.109919 0 1.42089e-15 -3.41101e-16 0 -0.000150922 0 0
6 1 0.015 -0.0151817 0.116841 0 1.01514e-15 8.84813e-16 0 -0.000138452 0 0
86 1 0.015 0.0127101 0.123263 0 1.19133e-15 4.44145e-16 0 -0.000365197 0 0
66 1 0.015 0.038308 0.1143 0 8.68206e-16 1.52365e-16 0 -0.000224884 0 0
71 1 0.015 0.0835145 0.119567 0 -4.48536e-16 6.53021e-16 0 -0.00026046 0 0
111 1 0.015 -0.0720173 0.126175 0 2.33582e-16 1.71791e-17 0 -0.000247471 0 0
108 1 0.015 -0.0475994 0.137734 0 9.5281e-17 -1.1315e-15 0 -0.000284235 0 0
59 1 0.015 0.0594659 0.132868 0 2.56205e-16 6.00086e-16 0 -0.000213187 0 0
39 1 0.015 -0.0214882 0.144159 0 3.05912e-17 4.75493e-16 0 -0.000297014 0 0
35 1 0.015 0.00527152 0.147608 0 1.28582e-16 7.69982e-16 0 -0.000361763 0 0
79 1 0.015 0.0331678 0.142326 0 2.83079e-16 -3.39822e-16 0 -0.000166754 0 0
