ITEM: TIMESTEP
200000
ITEM: NUMBER OF ATOMS
5843
ITEM: BOX BOUNDS ff ff ff
-2.5000000000000000e-01 2.5000000000000000e-01
-2.5000000000000000e-01 2.5000000000000000e-01
-1.0000000000000001e-01 1.0000000000000001e-01
ITEM: ATOMS id type radius x y z fx fy fz v_pressure c_bendingE c_stretchingE
98 1 0.015 -0.01349 -0.149042 -0.0014056 -2.58811e-06 1.96568e-06 6.76874e-07 -6.24878e-06 0 3.42992e-06
2624 2 0.002 -0.0138853 -0.144055 -0.000358065 -1.65666e-08 1.58368e-08 2.42785e-08 7.13314e-06 3.22361e-08 2.06948e-06
2703 2 0.002 -0.0104416 -0.146058 -0.000498426 -1.39639e-08 7.12263e-09 -2.44377e-08 5.53541e-06 4.06026e-08 1.44112e-06
2783 2 0.002 -0.00698212 -0.143995 -1.42136e-05 2.34734e-09 1.26906e-08 -1.45576e-07 5.15982e-06 1.62581e-08 2.60367e-08
3655 2 0.002 0.0311726 -0.141979 -6.1296e-05 4.54588e-09 -2.40464e-09 -3.45247e-08 5.28498e-06 1.54729e-09 5.9536e-09
3498 2 0.002 0.0242397 -0.14197 -7.29284e-05 2.16929e-10 -2.17114e-09 -1.21399e-07 6.18636e-06 4.9667e-10 8.63337e-09
3576 2 0.002 0.0277082 -0.143981 -4.86361e-05 1.04897e-09 2.34394e-10 2.84636e-08 2.51383e-06 4.34023e-10 5.1951e-09
3419 2 0.002 0.0207788 -0.143979 1.07866e-05 1.01761e-10 5.84686e-09 1.46598e-07 5.70628e-06 4.2666e-10 6.44405e-09
1477 2 0.002 -0.0658403 -0.130026 -0.000480612 -1.46871e-08 -3.91447e-08 -3.52915e-07 7.84851e-07 1.12403e-08 4.06881e-08
1478 2 0.002 -0.0658497 -0.126045 -0.000692618 -7.82925e-09 -1.11283e-08 -1.53826e-08 3.95494e-06 6.82449e-09 3.80723e-07
1406 2 0.002 -0.069297 -0.128016 -0.000358764 1.7809e-08 5.46776e-09 2.08444e-07 1.21032e-07 7.90206e-09 1.11616e-08
56 1 0.015 -0.0677759 -0.129685 -0.00108316 -3.51855e-07 -4.77107e-08 -5.99875e-08 -2.76728e-06 0 4.10195e-07
1336 2 0.002 -0.0727451 -0.125997 -0.000124151 -8.08087e-09 3.2555e-09 -1.03114e-07 1.68519e-06 1.74298e-09 4.98798e-10
1849 2 0.002 -0.0484702 -0.127982 -0.000551329 1.54372e-08 -2.54543e-08 -7.06164e-08 2.18981e-06 7.65138e-10 3.2978e-09
1774 2 0.002 -0.0519335 -0.125983 -0.000766299 8.0653e-09 -2.43564e-08 5.1184e-08 2.37368e-06 7.05528e-10 4.06949e-09
1848 2 0.002 -0.0484855 -0.131984 -0.000245648 1.33424e-08 -1.37183e-08 2.24529e-08 3.22013e-06 7.24687e-10 2.03541e-09
1550 2 0.002 -0.0623624 -0.12801 -0.000621364 -8.92529e-09 -4.86193e-09 1.95459e-07 4.33588e-06 5.14202e-09 4.55082e-09
1624 2 0.002 -0.058884 -0.125994 -0.000709717 -4.983e-09 -2.81097e-08 -1.13162e-07 4.68736e-06 1.67243e-09 4.72233e-09
1623 2 0.002 -0.0588865 -0.129994 -0.000474341 -4.53229e-10 -1.87848e-08 -6.35886e-08 3.6903e-06 7.89263e-10 2.54918e-09
1622 2 0.002 -0.0588878 -0.133993 -0.000178455 -5.22433e-10 -1.14119e-08 -8.61379e-08 3.00643e-06 1.03976e-09 1.769e-09
1772 2 0.002 -0.0519553 -0.133989 -0.000192117 9.72637e-09 -1.33787e-08 -4.06334e-08 1.55787e-06 6.00086e-10 2.29106e-09
1697 2 0.002 -0.0554182 -0.131988 -0.000335518 5.24273e-09 -1.11184e-08 4.93116e-08 1.67026e-06 3.21192e-10 2.08556e-09
1698 2 0.002 -0.0554117 -0.127987 -0.000617698 3.75506e-09 -2.21098e-08 2.16958e-08 4.17131e-06 4.52834e-10 3.265e-09
1773 2 0.002 -0.0519456 -0.129984 -0.000462099 1.06941e-08 -2.04833e-08 -9.76627e-09 1.91292e-06 2.70733e-10 2.74139e-09
1549 2 0.002 -0.0623573 -0.132001 -0.000292011 -2.45139e-09 4.56019e-09 1.41767e-07 3.11311e-06 4.09988e-09 1.78119e-09
1696 2 0.002 -0.0554229 -0.135992 -9.74953e-05 1.96627e-09 -3.5317e-09 3.53178e-08 1.29954e-06 6.17561e-10 1.3365e-09
1847 2 0.002 -0.0484959 -0.135992 -4.30395e-05 1.17244e-08 -8.58332e-09 1.9041e-08 2.27254e-06 6.91418e-10 1.23463e-09
1925 2 0.002 -0.0449945 -0.125983 -0.000589431 1.16028e-08 -6.76045e-09 2.60339e-08 2.6922e-06 1.72081e-09 5.12228e-09
2001 2 0.002 -0.0415463 -0.127986 -0.00013119 6.44438e-09 6.60454e-09 3.20113e-08 2.52583e-06 1.48233e-09 4.78354e-09
1924 2 0.002 -0.0450144 -0.129984 -0.000231021 1.29005e-08 -8.56706e-09 8.8675e-09 3.99823e-06 1.02981e-09 2.98612e-09
1923 2 0.002 -0.0450314 -0.13399 2.66321e-05 1.32191e-08 -7.39025e-09 4.02025e-08 2.63715e-06 1.5917e-09 1.8163e-09
3502 2 0.002 0.0242105 -0.125881 -0.00105689 2.12391e-09 -2.58859e-08 -9.43826e-08 1.17708e-05 5.15926e-09 2.19268e-08
3344 2 0.002 0.0172902 -0.12588 -0.000183528 1.17318e-08 1.33362e-08 1.23584e-08 9.92825e-06 1.80387e-09 1.71246e-08
3422 2 0.002 0.0207591 -0.131906 -0.000331557 1.90229e-08 1.32773e-08 1.46123e-07 4.01114e-06 8.13028e-10 1.04067e-08
3423 2 0.002 0.020753 -0.127885 -0.000540148 6.26347e-09 -3.04175e-09 -3.82354e-08 9.62806e-06 1.72235e-09 1.45702e-08
3501 2 0.002 0.0242214 -0.1299 -0.000693311 9.66051e-09 -1.38138e-08 -3.96575e-08 9.1447e-06 1.67805e-09 1.43375e-08
3579 2 0.002 0.0276952 -0.13192 -0.00062836 1.46824e-08 -1.47799e-08 -2.46018e-08 4.3278e-06 1.80943e-09 1.58251e-08
3580 2 0.002 0.0276842 -0.127903 -0.001048 1.22231e-08 -2.27663e-08 -2.29323e-08 1.08917e-05 3.80954e-09 2.47355e-08
3499 2 0.002 0.0242337 -0.137945 -0.000203388 4.8986e-09 -4.31346e-10 -5.89024e-08 6.69223e-06 5.15503e-10 8.63049e-09
3578 2 0.002 0.0277003 -0.135939 -0.000332739 1.27027e-08 -8.95354e-09 -2.175e-08 7.01217e-06 9.43015e-10 9.57696e-09
3421 2 0.002 0.0207651 -0.135929 -0.000155351 -4.95497e-09 1.02144e-09 -2.17038e-07 7.01303e-06 4.70503e-10 8.70157e-09
3500 2 0.002 0.0242288 -0.133921 -0.000406184 1.51786e-08 2.10322e-09 9.7601e-08 3.79115e-06 9.13549e-10 1.04651e-08
3656 2 0.002 0.0311711 -0.137958 -0.000149067 1.36072e-08 -6.86999e-09 -5.90366e-08 6.30415e-06 1.64791e-09 7.69626e-09
3657 2 0.002 0.0311704 -0.133943 -0.000389377 1.44564e-08 -6.08666e-09 4.53235e-08 2.81018e-06 1.47352e-09 1.87947e-08
3658 2 0.002 0.0311595 -0.129928 -0.000782125 1.79359e-08 -1.81959e-08 -9.43062e-09 3.29852e-06 1.87266e-09 2.6445e-08
3577 2 0.002 0.0277036 -0.13996 -0.000152086 5.12083e-09 4.83014e-10 9.41672e-08 2.97055e-06 6.44169e-10 6.93593e-09
3659 2 0.002 0.0311483 -0.125914 -0.00129033 1.22242e-08 -1.71529e-08 6.24213e-08 6.14449e-06 5.01162e-09 3.54514e-08
3343 2 0.002 0.0172917 -0.129897 -0.000109408 5.38912e-09 1.79489e-08 8.52369e-10 8.38101e-06 9.49388e-10 1.09321e-08
3342 2 0.002 0.0172969 -0.133918 -6.06978e-06 -1.18098e-09 1.86409e-08 -1.08272e-07 7.36113e-06 4.95255e-10 8.61687e-09
3420 2 0.002 0.0207699 -0.139955 -3.67216e-05 1.1583e-08 1.34348e-08 1.83435e-07 6.52334e-06 3.54895e-10 7.75983e-09
3736 2 0.002 0.0346175 -0.12794 -0.000822976 2.35625e-08 -2.51786e-08 -8.20431e-08 3.54496e-06 1.1005e-09 3.41217e-08
3814 2 0.002 0.0380728 -0.125949 -0.000752825 1.38037e-08 -9.5574e-09 -3.67382e-08 3.34896e-06 1.7296e-09 2.78636e-08
3968 2 0.002 0.0450075 -0.125975 -0.000371314 5.76375e-09 1.58277e-08 -4.61308e-08 0.00747329 1.72672e-09 9.39577e-09
3735 2 0.002 0.0346305 -0.131956 -0.000364469 2.24854e-08 -1.33551e-08 -3.71767e-08 2.44511e-06 1.43429e-09 3.29823e-08
3891 2 0.002 0.0415372 -0.127977 -0.000338515 1.40792e-08 8.71253e-09 5.14161e-09 3.1093e-06 1.71165e-09 2.34688e-08
3813 2 0.002 0.0380813 -0.12997 -0.000331577 1.58396e-08 3.61512e-09 5.85529e-08 2.57071e-06 1.26844e-09 3.5871e-08
3967 2 0.002 0.0450057 -0.129992 -0.000101932 1.4305e-08 1.59701e-08 1.48714e-08 8.10365e-06 1.71378e-09 1.16891e-08
4341 2 0.002 0.0624146 -0.132057 -0.000782103 -8.74132e-09 -6.00482e-10 -2.94595e-08 3.03623e-06 5.9069e-08 2.73661e-08
4342 2 0.002 0.0624464 -0.128087 -0.00119201 -1.97122e-08 7.2994e-09 -4.20732e-08 6.00346e-06 5.28489e-08 1.1479e-07
4268 2 0.002 0.0589344 -0.130029 -0.000795197 -9.62953e-09 1.25963e-08 -8.06876e-09 2.72636e-06 1.30879e-08 1.60716e-08
4194 2 0.002 0.055452 -0.128007 -0.000619681 -8.47044e-09 2.33961e-08 -6.78353e-09 3.6884e-06 2.24148e-09 1.21372e-08
4267 2 0.002 0.0589114 -0.134002 -0.000347592 -3.4979e-09 7.04555e-10 -4.17529e-08 1.45811e-06 7.76133e-09 6.38212e-09
4269 2 0.002 0.0589483 -0.126032 -0.000846246 -1.80328e-08 2.07957e-08 -1.71703e-08 3.61531e-06 4.86785e-09 3.56798e-08
4192 2 0.002 0.0554299 -0.135992 -0.000129085 -2.14655e-10 6.25502e-09 2.27627e-08 1.71623e-06 1.92683e-09 2.30568e-09
4119 2 0.002 0.0519701 -0.125992 -0.000458572 -6.92045e-09 3.02254e-08 -6.58362e-09 6.8882e-06 1.3878e-09 8.65382e-09
4193 2 0.002 0.0554387 -0.132 -0.000425693 1.44715e-09 1.75778e-08 5.36651e-08 2.80552e-06 2.38823e-09 7.96053e-09
4043 2 0.002 0.0484837 -0.127987 -0.000292893 5.24292e-09 2.43975e-08 1.24965e-08 0.00681022 1.17675e-09 7.14105e-09
4118 2 0.002 0.0519611 -0.129995 -0.000350947 1.04811e-09 2.06179e-08 -1.81684e-08 6.43317e-06 1.06138e-09 8.07455e-09
4117 2 0.002 0.0519546 -0.133995 -0.000145561 3.15741e-09 8.42529e-09 -5.64423e-08 2.76899e-06 1.03542e-09 6.00183e-09
4042 2 0.002 0.0484787 -0.131995 -7.14086e-05 1.11938e-08 1.56066e-08 -1.54154e-09 6.84354e-06 1.84548e-09 8.32979e-09
76 1 0.015 0.0667331 -0.131647 -0.00306019 -1.24228e-06 -6.66177e-07 -9.48494e-08 -7.57811e-06 0 1.87338e-06
4414 2 0.002 0.0659655 -0.130225 -0.00152514 -1.49465e-08 -3.98385e-09 -7.77795e-09 4.70463e-05 1.67599e-07 2.04877e-06
4415 2 0.002 0.0658894 -0.126097 -0.00112917 -2.0871e-08 -2.61449e-09 1.47552e-08 6.17512e-06 5.35726e-08 1.42162e-07
4486 2 0.002 0.0693191 -0.128065 -0.000729052 -6.88764e-09 -6.26922e-09 -3.70163e-08 4.12536e-06 5.76143e-08 3.36486e-08
4557 2 0.002 0.0727557 -0.12601 -0.000227607 -1.80831e-08 -5.55675e-09 4.25911e-08 6.74036e-07 6.53571e-09 9.68778e-09
1479 2 0.002 -0.0658112 -0.122009 -0.000461147 -6.80686e-09 -9.85687e-09 2.71792e-08 3.32258e-06 3.55279e-09 1.30476e-08
1407 2 0.002 -0.069281 -0.124002 -0.000344218 -1.15053e-08 6.27178e-09 -7.09463e-08 3.58501e-06 4.97071e-09 2.48576e-09
1408 2 0.002 -0.0692599 -0.119995 -9.89381e-05 -5.96012e-09 3.90282e-09 2.54605e-08 4.55248e-06 1.26332e-09 3.3149e-09
1480 2 0.002 -0.0657848 -0.117997 -0.000128214 -1.08674e-08 -7.89744e-10 -3.8065e-08 5.88264e-06 8.84243e-10 6.31866e-09
1337 2 0.002 -0.0727338 -0.121991 -3.71476e-05 -3.27324e-09 6.64105e-09 5.85849e-08 3.0526e-06 1.29982e-09 1.40707e-09
1267 2 0.002 -0.0762058 -0.123993 1.821e-05 -2.36631e-09 6.61741e-09 3.80612e-08 2.34831e-06 6.36622e-10 1.01362e-09
1626 2 0.002 -0.0588531 -0.11798 -0.000647957 -2.06571e-09 -3.44002e-08 5.97627e-08 3.03362e-06 2.31468e-09 6.6828e-09
1851 2 0.002 -0.0484386 -0.119986 -0.00134892 6.07537e-09 -3.25276e-08 -1.0737e-08 7.71792e-06 5.10367e-09 9.42926e-09
1552 2 0.002 -0.062334 -0.119992 -0.000519 -9.4882e-09 -1.68473e-08 -2.02336e-08 5.78503e-06 2.09334e-09 6.52786e-09
1776 2 0.002 -0.0519092 -0.117975 -0.00127292 8.38621e-09 -3.65286e-08 9.66154e-08 7.73921e-06 5.32772e-09 1.19732e-08
1778 2 0.002 -0.0518862 -0.109982 -0.00106134 -1.32215e-08 -3.86413e-08 -4.7901e-08 6.51182e-06 4.85815e-09 4.7639e-08
1777 2 0.002 -0.0518998 -0.113972 -0.00131455 3.50438e-09 -4.2952e-08 4.31657e-08 5.20006e-06 6.85941e-09 2.37666e-08
1852 2 0.002 -0.0484313 -0.115987 -0.00176416 1.40554e-09 -3.8338e-08 -5.52606e-09 1.20161e-05 1.82823e-08 2.72385e-08
1853 2 0.002 -0.048432 -0.111984 -0.00187667 -3.54944e-09 -4.0716e-08 -1.00538e-08 1.67401e-05 4.02926e-08 6.21462e-08
1700 2 0.002 -0.0553902 -0.119978 -0.000954561 -4.83957e-09 -3.6966e-08 -4.74309e-08 3.00051e-06 2.98365e-09 7.5618e-09
1775 2 0.002 -0.051921 -0.121981 -0.00105649 6.0361e-10 -3.91349e-08 -6.42138e-08 5.85443e-06 2.1611e-09 6.34041e-09
1850 2 0.002 -0.0484534 -0.123983 -0.000924377 8.48882e-09 -2.25563e-08 1.81924e-08 5.69777e-06 1.56701e-09 5.38543e-09
1701 2 0.002 -0.0553739 -0.115972 -0.000903574 -1.41199e-08 -3.7154e-08 -7.10488e-08 7.38852e-06 3.40451e-09 1.08998e-08
1702 2 0.002 -0.0553547 -0.111978 -0.000651482 -8.0268e-09 -3.98576e-08 -1.11028e-08 9.42482e-06 2.1741e-09 2.12057e-08
1627 2 0.002 -0.0588291 -0.113982 -0.00035793 -1.10168e-08 -2.81915e-08 -3.066e-08 7.30057e-06 1.7614e-09 9.61792e-09
1551 2 0.002 -0.0623606 -0.124006 -0.000698158 -7.5519e-09 -1.57656e-08 -2.13388e-08 3.22867e-06 4.11828e-09 1.28467e-08
1625 2 0.002 -0.0588739 -0.121988 -0.000770133 -3.6314e-09 -2.99282e-08 3.76634e-08 5.54797e-06 2.32961e-09 7.41555e-09
1699 2 0.002 -0.0554028 -0.123985 -0.000845253 1.63165e-09 -2.94675e-08 4.66515e-08 2.49619e-06 1.50819e-09 5.16313e-09
1553 2 0.002 -0.0623072 -0.11599 -0.000194811 -1.09451e-08 -1.43248e-08 -2.84069e-08 6.24611e-06 1.35259e-09 5.98734e-09
24 1 0.015 -0.0439578 -0.112546 -0.00457323 -7.53722e-07 -1.04758e-06 -3.55712e-07 -5.2344e-06 0 1.22381e-06
1929 2 0.002 -0.0449602 -0.110007 -0.00243181 -8.36151e-10 -3.00122e-08 -3.01014e-09 3.31498e-05 5.45833e-08 6.91847e-07
1926 2 0.002 -0.0449728 -0.121988 -0.0010562 8.10072e-09 -6.48416e-09 5.58242e-08 7.49851e-06 4.07914e-09 1.0263e-08
2160 2 0.002 -0.034562 -0.112076 -0.000676933 3.90826e-08 2.73083e-08 -5.60834e-08 3.58079e-06 6.7227e-09 4.92787e-08
2083 2 0.002 -0.0380018 -0.110079 -0.00151787 2.56763e-09 1.17892e-08 6.76961e-08 6.88517e-06 2.16985e-08 5.35281e-08
2081 2 0.002 -0.0380344 -0.118017 -0.000794165 3.44519e-08 9.97482e-09 -9.59265e-08 5.79383e-06 4.42041e-09 4.87872e-08
1927 2 0.002 -0.0449534 -0.118004 -0.00167066 7.6903e-09 -2.99777e-08 -6.94809e-08 1.1882e-05 1.78687e-08 2.62829e-08
1928 2 0.002 -0.0449508 -0.114029 -0.00245213 5.10049e-10 -2.74207e-08 -1.70188e-08 2.48523e-05 5.12967e-08 2.97844e-07
2003 2 0.002 -0.0414958 -0.120001 -0.00105948 1.94508e-09 2.00111e-08 8.32324e-08 4.83972e-06 5.78661e-09 2.14153e-08
2004 2 0.002 -0.0414686 -0.116031 -0.00174167 5.92732e-09 1.64276e-09 1.37782e-08 1.58142e-05 4.01594e-08 6.07998e-08
2005 2 0.002 -0.0414501 -0.112055 -0.00239059 3.95282e-09 -6.94216e-09 4.05021e-09 3.03088e-05 5.36423e-08 5.48818e-07
2082 2 0.002 -0.0380061 -0.114054 -0.00135037 2.40529e-09 2.40827e-08 5.77413e-08 7.93739e-06 1.86117e-08 1.01224e-07
2159 2 0.002 -0.0345936 -0.116034 -0.000259533 1.54496e-08 3.90966e-08 1.92291e-08 4.02165e-06 1.98153e-09 7.01055e-08
2080 2 0.002 -0.0380623 -0.121992 -0.000274542 7.12261e-09 2.50067e-08 1.12611e-08 8.17063e-06 2.10487e-09 1.80776e-08
2002 2 0.002 -0.0415227 -0.123987 -0.000524401 2.31583e-08 -5.47453e-09 -1.11859e-07 6.65284e-06 2.50023e-09 8.68907e-09
2238 2 0.002 -0.0311015 -0.110091 -0.000158229 3.20219e-08 4.06545e-08 9.403e-09 4.15342e-06 4.67658e-09 2.08953e-08
3425 2 0.002 0.0207482 -0.119855 -0.000764354 1.49715e-08 -9.01233e-09 2.29277e-08 1.50212e-05 5.08192e-09 4.39985e-08
3426 2 0.002 0.0207557 -0.115858 -0.000525373 1.74157e-08 -1.44905e-08 3.14145e-08 1.66829e-05 4.0901e-09 6.33704e-08
3503 2 0.002 0.0242027 -0.121861 -0.00142263 1.8507e-08 -1.65685e-08 6.82642e-08 1.76628e-05 1.90348e-08 5.9195e-08
3504 2 0.002 0.0242009 -0.117849 -0.00145118 4.30512e-09 -2.38653e-08 -2.17843e-08 2.20418e-05 3.67175e-08 9.66205e-08
3505 2 0.002 0.0242088 -0.113849 -0.000995396 8.4091e-10 -2.8612e-08 -8.36164e-09 1.06267e-05 1.42503e-08 1.11206e-07
3582 2 0.002 0.0276632 -0.119879 -0.00229157 5.40593e-10 -4.03825e-08 -2.1822e-08 3.22679e-05 5.17042e-08 6.11799e-07
3583 2 0.002 0.0276643 -0.115849 -0.00200388 -8.48629e-09 -3.55591e-08 -7.87934e-08 3.85576e-05 4.59427e-08 8.92215e-07
3584 2 0.002 0.0276629 -0.11185 -0.00102995 -9.22509e-09 -5.69737e-08 7.8587e-08 1.03459e-05 1.3982e-08 1.08959e-07
20 1 0.015 0.0298279 -0.119197 -0.00430371 9.19364e-08 -1.81938e-06 -1.8332e-07 -5.51496e-06 0 1.56568e-06
3581 2 0.002 0.0276699 -0.123889 -0.00160325 1.75333e-08 -1.18911e-08 1.16289e-07 1.53858e-05 2.08589e-08 4.41343e-08
3427 2 0.002 0.0207656 -0.11187 -4.30929e-05 1.84578e-08 -1.7063e-08 5.39411e-08 7.82361e-06 2.77547e-09 5.74843e-08
3424 2 0.002 0.0207497 -0.123866 -0.000726364 1.29359e-08 -6.46837e-09 5.47414e-09 1.23761e-05 4.0006e-09 2.7805e-08
3345 2 0.002 0.0172924 -0.121869 -0.00016418 8.7098e-09 9.87952e-09 -2.54951e-08 1.16185e-05 1.98029e-09 2.60673e-08
3506 2 0.002 0.0242178 -0.109858 -0.000254919 -6.01537e-10 -2.8568e-08 3.76473e-08 7.93089e-06 4.5565e-09 5.61639e-08
3663 2 0.002 0.0311287 -0.109864 -0.000620101 -3.12085e-08 -4.10903e-08 3.63126e-08 1.56259e-05 4.60256e-09 5.73113e-08
3662 2 0.002 0.0311283 -0.113854 -0.00147859 -2.20001e-08 -3.95503e-08 -3.41786e-08 2.0519e-05 3.52334e-08 8.22754e-08
3660 2 0.002 0.031146 -0.121901 -0.00185285 7.30945e-09 -3.12292e-08 -3.42085e-08 1.63088e-05 4.00467e-08 4.87142e-08
3661 2 0.002 0.0311561 -0.117869 -0.00227185 -3.57766e-09 -3.61401e-08 -1.06941e-07 2.90312e-05 5.02658e-08 4.18281e-07
3737 2 0.002 0.0346107 -0.123922 -0.00127844 2.9146e-10 -1.26897e-08 6.6954e-08 6.08042e-06 4.66062e-09 3.51786e-08
3816 2 0.002 0.0380666 -0.117906 -0.00105036 -3.27996e-08 -1.32139e-08 8.04776e-08 1.11849e-05 4.55924e-09 1.96125e-08
3739 2 0.002 0.0345975 -0.115877 -0.00141994 -2.54679e-08 -2.76378e-08 -2.31508e-08 1.62505e-05 1.7219e-08 4.58239e-08
3738 2 0.002 0.0346101 -0.119897 -0.00158673 -9.61993e-09 -2.25148e-08 -1.15599e-08 1.46056e-05 1.95445e-08 3.92864e-08
3740 2 0.002 0.0345917 -0.111877 -0.000820436 -4.48295e-08 -4.22058e-08 8.12606e-08 1.39141e-05 4.61617e-09 3.42072e-08
3818 2 0.002 0.038064 -0.109903 -0.000243456 -3.72282e-08 -1.14239e-09 -9.70005e-08 1.07947e-05 1.57582e-09 1.90979e-08
3817 2 0.002 0.0380607 -0.113899 -0.000740448 -4.10038e-08 -1.70243e-08 4.30479e-08 1.17463e-05 3.295e-09 2.30955e-08
3894 2 0.002 0.0415348 -0.115922 -0.000543572 -2.15043e-08 1.07628e-08 -9.23262e-08 9.39178e-06 1.52586e-09 1.38255e-08
3895 2 0.002 0.0415362 -0.111923 -0.000188292 -3.87915e-08 3.04379e-09 -2.01304e-08 4.92055e-06 1.14446e-09 1.60679e-08
3892 2 0.002 0.0415353 -0.123954 -0.000621573 4.03405e-09 6.86858e-09 -4.82271e-08 4.32293e-06 2.24714e-09 1.56295e-08
3893 2 0.002 0.0415355 -0.119934 -0.000704197 -6.51958e-09 8.67766e-09 -8.95713e-08 8.76827e-06 2.06404e-09 1.28375e-08
3815 2 0.002 0.0380689 -0.121927 -0.00103132 -1.03758e-08 -6.12244e-09 5.46445e-08 1.05321e-05 3.67189e-09 2.31843e-08
3969 2 0.002 0.0450099 -0.121958 -0.000476882 -1.47759e-08 2.13354e-08 1.26543e-07 7.40079e-06 1.86083e-09 9.0659e-09
3970 2 0.002 0.0450108 -0.117945 -0.000376288 -2.68681e-08 2.06644e-08 4.88475e-08 3.93938e-06 1.35831e-09 9.79349e-09
3971 2 0.002 0.0450112 -0.113942 -8.64889e-05 -3.7375e-08 1.42685e-08 5.66097e-08 4.3024e-06 8.02485e-10 1.16339e-08
4343 2 0.002 0.0624166 -0.124049 -0.000891119 -1.93245e-08 5.74178e-09 7.11289e-08 4.02016e-06 1.27387e-08 3.49504e-08
4195 2 0.002 0.0554592 -0.124004 -0.000570189 -1.38936e-08 3.01216e-08 3.03604e-08 8.20011e-06 2.11984e-09 1.58033e-08
4270 2 0.002 0.0589365 -0.122018 -0.000577594 -2.14744e-08 2.87504e-08 -2.47914e-08 4.60817e-06 2.20292e-09 1.89805e-08
4344 2 0.002 0.0624004 -0.120026 -0.000436989 -2.10457e-08 1.23754e-08 4.55622e-08 3.14825e-06 1.55414e-09 2.07354e-08
4271 2 0.002 0.058926 -0.118009 -0.000169826 -2.10455e-08 3.74317e-08 -7.6762e-08 4.14507e-06 4.57515e-10 1.36984e-08
4196 2 0.002 0.0554543 -0.119997 -0.000312049 -2.01207e-08 3.4863e-08 1.81675e-08 3.92703e-06 1.16136e-09 1.2413e-08
4044 2 0.002 0.0484889 -0.123977 -0.000397038 -7.0886e-09 3.17138e-08 9.86076e-09 0.00681549 1.60413e-09 7.51275e-09
4120 2 0.002 0.051974 -0.121984 -0.000385628 -1.48899e-08 3.57872e-08 -6.18298e-09 7.19765e-06 1.56613e-09 9.85928e-09
4045 2 0.002 0.0484909 -0.119966 -0.000317008 -1.54353e-08 3.90501e-08 -1.26739e-07 7.1223e-06 1.51996e-09 8.51438e-09
4046 2 0.002 0.0484896 -0.115961 -5.02399e-05 -2.74511e-08 2.95635e-08 2.02207e-08 7.68309e-06 1.00098e-09 9.21622e-09
4121 2 0.002 0.0519715 -0.117979 -0.000129155 -2.28807e-08 3.30978e-08 5.57491e-08 7.41522e-06 1.16806e-09 9.63998e-09
4345 2 0.002 0.0623925 -0.116015 2.91183e-05 -1.5211e-08 9.97324e-09 7.96025e-08 4.07742e-06 4.35155e-10 1.33081e-08
4197 2 0.002 0.0554475 -0.115995 8.26298e-05 -1.99755e-08 3.21748e-08 3.30939e-08 7.72938e-06 5.10811e-10 1.07468e-08
4487 2 0.002 0.0693198 -0.124032 -0.000600413 -2.50185e-08 -7.21637e-09 2.20488e-08 2.6641e-06 1.41707e-08 2.61609e-08
4416 2 0.002 0.0658667 -0.122045 -0.000637914 -2.04469e-08 1.23376e-08 -7.14508e-08 3.7655e-06 3.62484e-09 4.62149e-08
4488 2 0.002 0.0693227 -0.120018 -0.000208017 -2.4524e-08 -6.36494e-09 1.5345e-08 2.51595e-06 1.84422e-09 1.86811e-08
4417 2 0.002 0.0658611 -0.118023 -0.000158405 -1.77301e-08 1.44557e-08 -6.96263e-08 2.8852e-06 1.06654e-09 1.92454e-08
4558 2 0.002 0.0727759 -0.122005 -7.988e-05 -1.75163e-08 -7.39229e-09 -4.22957e-08 1.6585e-06 3.17487e-09 1.57907e-08
637 2 0.002 -0.110825 -0.0959878 -0.000132678 4.55267e-09 -1.32841e-08 -1.91635e-08 8.11876e-06 1.18973e-09 1.49626e-08
694 2 0.002 -0.107353 -0.0979847 -0.000220935 1.19403e-08 -1.27783e-08 3.0991e-08 9.44963e-06 1.53429e-09 2.25751e-08
695 2 0.002 -0.107328 -0.0939754 -0.000402704 1.91665e-08 -2.94164e-08 5.80103e-09 4.81253e-06 9.95952e-10 2.25427e-08
816 2 0.002 -0.100351 -0.0939484 -0.000919216 2.32589e-08 -1.9909e-08 -1.38918e-09 1.26045e-05 2.47542e-09 4.17106e-08
754 2 0.002 -0.103854 -0.0959673 -0.000544187 2.14609e-08 -2.32439e-08 9.94533e-09 5.35561e-06 1.01827e-09 3.08076e-08
878 2 0.002 -0.0968806 -0.0959391 -0.000877134 1.8994e-08 -6.16411e-09 1.44895e-08 1.23973e-05 3.25058e-09 3.46943e-08
877 2 0.002 -0.0969229 -0.099947 -0.000459613 1.77749e-08 -7.50289e-09 1.34158e-09 3.27052e-06 1.48676e-09 2.27697e-08
753 2 0.002 -0.103887 -0.0999797 -0.000259359 1.12063e-08 -1.46986e-08 -3.3319e-08 5.19036e-06 1.77993e-09 2.99676e-08
814 2 0.002 -0.100424 -0.101967 -0.000251168 1.39463e-08 -7.7254e-09 3.6621e-08 3.13473e-06 1.49271e-09 2.63529e-08
815 2 0.002 -0.100387 -0.0979562 -0.000573887 1.97677e-08 -1.72704e-08 -1.11558e-08 3.56914e-06 1.12487e-09 3.18612e-08
813 2 0.002 -0.100444 -0.105978 -7.28943e-05 4.67242e-09 -3.39984e-09 -1.61263e-08 3.2272e-06 9.66353e-10 1.00963e-08
876 2 0.002 -0.0969565 -0.103959 -0.000169625 1.34179e-08 -5.53097e-09 -7.37696e-09 3.6885e-06 1.18249e-09 1.20838e-08
875 2 0.002 -0.0969841 -0.107977 -2.90229e-05 7.07952e-09 -1.84161e-09 -3.30623e-09 1.78688e-06 1.51309e-09 8.3193e-09
1072 2 0.002 -0.0864434 -0.0939404 -0.000251724 -2.241e-09 2.62446e-08 -4.1684e-08 1.37626e-05 3.36432e-09 3.33374e-08
941 2 0.002 -0.0934221 -0.0979341 -0.000578274 1.40497e-08 3.69926e-09 -3.68073e-10 1.14294e-05 2.90126e-09 2.43865e-08
942 2 0.002 -0.0933706 -0.0939253 -0.00110872 9.10897e-09 1.03936e-08 1.6475e-08 1.59836e-05 9.59388e-09 4.70437e-08
1006 2 0.002 -0.0899267 -0.0959319 -0.000538012 3.8666e-09 1.80051e-08 4.02115e-09 1.29437e-05 3.31901e-09 2.57583e-08
940 2 0.002 -0.0934648 -0.101948 -0.00019996 1.60708e-08 -3.14688e-10 -2.30569e-08 4.33664e-06 1.54023e-09 1.39787e-08
1005 2 0.002 -0.0899761 -0.0999455 -0.000129016 8.48955e-09 1.53607e-08 1.58382e-08 5.04691e-06 1.41366e-09 1.65492e-08
1779 2 0.002 -0.0518651 -0.106013 -0.000517501 1.73875e-09 -4.57654e-08 2.53672e-08 6.90495e-06 2.08805e-09 5.7991e-08
1855 2 0.002 -0.0483979 -0.10403 -0.000702003 -1.13396e-08 -2.4382e-08 -5.77108e-08 4.65468e-06 4.74798e-09 4.63927e-08
1854 2 0.002 -0.0484204 -0.107995 -0.00147011 3.92268e-09 -4.65615e-08 3.96628e-08 9.04541e-06 1.88861e-08 1.0032e-07
1703 2 0.002 -0.0553331 -0.108004 -0.00019277 -8.90487e-09 -3.55557e-08 -2.43145e-08 5.75606e-06 1.19958e-09 3.91953e-08
1930 2 0.002 -0.0449507 -0.10603 -0.00148617 -3.48934e-09 -2.61409e-08 -6.7883e-09 8.62509e-06 2.01972e-08 7.20255e-08
2006 2 0.002 -0.0414769 -0.10805 -0.00182928 -1.24322e-10 -1.44395e-08 3.65951e-08 1.65098e-05 4.29732e-08 4.07724e-08
2084 2 0.002 -0.0379995 -0.106079 -0.00126582 6.13292e-09 6.06893e-09 4.17443e-08 8.84672e-06 9.79691e-09 1.3941e-08
2162 2 0.002 -0.0345091 -0.104099 -0.000934762 1.39985e-08 1.88093e-08 6.11663e-08 2.88344e-06 7.464e-09 7.27069e-09
2007 2 0.002 -0.0414679 -0.10406 -0.00116096 -1.80541e-09 1.89985e-09 -8.41614e-08 1.10835e-05 6.99052e-09 2.16706e-08
2161 2 0.002 -0.0345379 -0.108098 -0.000893931 2.49773e-08 2.46195e-08 -1.24795e-08 2.57026e-06 8.70036e-09 1.9394e-08
2164 2 0.002 -0.0344379 -0.0960985 -0.000618541 -9.96504e-09 -5.09333e-10 5.07967e-08 4.16243e-06 2.8347e-09 1.41167e-08
1931 2 0.002 -0.0449204 -0.102057 -0.000653721 -3.86263e-09 -2.94315e-08 1.81894e-08 6.25885e-06 3.47095e-09 3.36163e-08
2085 2 0.002 -0.0379763 -0.102079 -0.000900398 1.17746e-09 8.03186e-09 -6.33755e-08 7.36657e-06 4.99998e-09 8.57505e-09
2163 2 0.002 -0.0344758 -0.100096 -0.000836485 1.55607e-09 1.37636e-08 -5.46444e-08 3.16259e-06 5.22235e-09 7.9085e-09
2008 2 0.002 -0.0414329 -0.100074 -0.000524182 -2.85202e-09 -2.77703e-08 1.02543e-07 4.83057e-06 2.60486e-09 1.55737e-08
2086 2 0.002 -0.0379366 -0.0980855 -0.000483215 -8.48721e-09 -8.74127e-09 5.80119e-08 4.0064e-06 2.69968e-09 1.00861e-08
2087 2 0.002 -0.0378884 -0.094099 -3.1606e-05 -3.65709e-08 4.24199e-09 -6.56553e-08 9.44516e-06 1.63213e-09 1.49583e-08
2009 2 0.002 -0.0413823 -0.0960919 8.54013e-05 -2.69987e-08 -1.66752e-10 -5.39513e-08 9.93586e-06 1.24943e-09 1.49613e-08
92 1 0.015 -0.0194909 -0.0961404 -0.00443878 1.34585e-06 4.96494e-06 -3.20125e-07 -7.59809e-06 0 1.62412e-06
2475 2 0.002 -0.0206378 -0.104175 -0.000256971 3.2855e-08 3.19845e-08 7.13509e-10 1.35342e-05 4.74884e-09 5.57057e-08
2240 2 0.002 -0.0310079 -0.10212 -0.000891376 2.168e-08 3.03373e-08 4.61146e-08 5.92909e-06 7.5623e-09 6.81944e-09
2319 2 0.002 -0.0275043 -0.100157 -0.00115488 2.74426e-08 3.76824e-08 3.04639e-08 9.20543e-06 9.45663e-09 1.54812e-08
2318 2 0.002 -0.0275527 -0.104142 -0.000609568 3.75546e-08 3.66571e-08 -7.05547e-09 7.38993e-06 6.24648e-09 8.67293e-09
2396 2 0.002 -0.0241245 -0.10614 -2.00338e-05 4.18514e-08 2.39388e-08 -4.63793e-08 1.04741e-05 3.29203e-09 2.62314e-08
2556 2 0.002 -0.0170964 -0.0982364 -0.00136697 2.15096e-08 3.33188e-08 -5.27036e-09 1.98659e-05 4.92818e-08 7.34273e-08
2477 2 0.002 -0.0204923 -0.0963321 -0.00258115 2.67013e-08 6.62829e-08 -1.24173e-09 3.96188e-05 7.65077e-08 8.72562e-07
2398 2 0.002 -0.0240051 -0.0982223 -0.00173437 3.00537e-08 4.60708e-08 1.51952e-08 1.71359e-05 3.75377e-08 5.61332e-08
2476 2 0.002 -0.0205603 -0.100247 -0.00136321 3.33132e-08 3.62457e-08 -3.9953e-08 1.7822e-05 3.23322e-08 7.97358e-08
2241 2 0.002 -0.0309736 -0.0981191 -0.00101809 2.2515e-09 1.83775e-08 -4.50524e-08 3.96711e-06 5.57889e-09 1.36387e-08
2320 2 0.002 -0.0274792 -0.0961602 -0.00145825 4.90848e-09 2.44657e-08 -2.21072e-08 1.26458e-05 9.02126e-09 3.29629e-08
2397 2 0.002 -0.0240545 -0.10219 -0.000923313 3.7275e-08 3.40336e-08 -3.49847e-08 1.1314e-05 1.02911e-08 2.73059e-08
2555 2 0.002 -0.0171668 -0.102183 -0.000374353 2.13928e-08 2.62247e-08 1.3388e-08 1.49259e-05 7.72845e-09 5.26021e-08
2242 2 0.002 -0.0309471 -0.0941208 -0.000957308 -1.36319e-08 5.53216e-09 1.44299e-08 5.44425e-06 2.3228e-09 2.8892e-08
2399 2 0.002 -0.0239964 -0.0942241 -0.00209465 6.3159e-09 3.72162e-08 -2.66678e-09 2.21482e-05 5.43285e-08 1.12396e-07
2557 2 0.002 -0.0170534 -0.0942536 -0.00207955 1.32232e-08 4.99579e-08 4.5332e-08 3.03091e-05 5.37079e-08 3.38437e-07
2239 2 0.002 -0.0310514 -0.106115 -0.000588115 3.71279e-08 2.88055e-08 -5.69613e-08 3.03171e-06 7.1252e-09 7.40624e-09
2317 2 0.002 -0.0276173 -0.108109 5.97449e-05 3.61214e-08 3.9824e-08 1.28934e-08 8.37994e-06 4.11065e-09 1.14438e-08
2635 2 0.002 -0.0137247 -0.100142 -0.000172262 1.23267e-08 1.07316e-08 1.44236e-08 1.48894e-05 4.77661e-09 4.0146e-08
2636 2 0.002 -0.0136867 -0.0961565 -0.000833058 1.91086e-08 1.28688e-08 -1.9173e-08 1.7644e-05 1.42205e-08 4.96377e-08
2716 2 0.002 -0.0102998 -0.0940729 -0.000102216 -9.70826e-09 -1.58909e-09 4.82572e-08 1.48688e-05 2.70444e-09 3.36048e-08
3585 2 0.002 0.027679 -0.107862 -0.000131373 -1.58969e-08 -4.40248e-08 8.76936e-08 5.13147e-06 3.15248e-09 6.56316e-08
3741 2 0.002 0.0345975 -0.107886 -0.000130676 -4.30409e-08 -2.63656e-08 2.10221e-08 1.18961e-05 1.56749e-09 2.80393e-08
4967 2 0.002 0.0936041 -0.0939735 -0.000445096 -7.6128e-09 -3.42577e-08 -3.35317e-08 3.71715e-06 1.43236e-10 8.91697e-09
4966 2 0.002 0.0935927 -0.0979811 -0.000172396 1.89731e-09 -3.12266e-08 1.32669e-08 2.06134e-06 4.88184e-10 9.97105e-09
4902 2 0.002 0.0901424 -0.0959702 3.42344e-05 3.90343e-09 -2.98637e-08 -8.84918e-09 3.39534e-06 1.78178e-10 1.02676e-08
5091 2 0.002 0.100496 -0.101996 -0.00035358 1.76939e-09 -1.64941e-08 -1.71785e-08 8.95765e-07 5.49116e-09 6.01366e-09
5153 2 0.002 0.103994 -0.100043 -0.000743075 2.92692e-09 1.13588e-08 9.61038e-08 3.8193e-06 3.49027e-08 2.02766e-08
5213 2 0.002 0.107532 -0.0981658 -0.0013724 5.38234e-09 -2.26166e-09 -9.02296e-10 2.44373e-05 1.00501e-07 5.07256e-07
5030 2 0.002 0.0970634 -0.0959952 -0.000671419 -6.11211e-09 -3.41073e-08 -1.67614e-08 7.32387e-06 9.7531e-10 9.62552e-09
5092 2 0.002 0.100528 -0.0980208 -0.000831948 -9.38888e-09 -3.15236e-08 -8.34521e-08 7.15292e-06 7.21368e-09 1.15262e-08
5093 2 0.002 0.100544 -0.0940324 -0.00116413 1.10345e-09 -2.72635e-08 8.05932e-08 1.01655e-05 3.55994e-09 2.2305e-08
5154 2 0.002 0.10403 -0.0960891 -0.0013592 1.98297e-09 -1.57602e-08 6.34341e-09 1.3698e-05 3.97631e-08 4.18172e-08
5214 2 0.002 0.107526 -0.0941442 -0.00170273 3.94265e-09 -1.2471e-08 -4.5046e-08 2.50646e-05 4.05076e-08 5.00658e-07
5029 2 0.002 0.097043 -0.0999904 -0.000351656 6.74657e-09 -2.10115e-08 7.91375e-08 1.61376e-06 2.4276e-09 8.92283e-09
68 1 0.015 0.109078 -0.0977197 -0.00300035 8.67925e-07 1.3812e-06 3.83584e-07 -6.04108e-06 0 9.95442e-07
5090 2 0.002 0.100466 -0.105998 -7.20416e-05 2.63543e-09 -8.49242e-09 -8.52188e-09 -9.18463e-08 2.45164e-09 1.57261e-09
5028 2 0.002 0.0970208 -0.10399 -4.89328e-05 3.13914e-09 -1.97584e-08 4.56345e-09 5.63549e-07 1.58678e-09 5.53557e-09
5271 2 0.002 0.110946 -0.096087 -0.000954398 9.67801e-09 -2.32983e-09 -1.48472e-08 6.44136e-06 6.84824e-08 1.54886e-07
638 2 0.002 -0.110811 -0.0919861 -0.000197301 1.36344e-08 -2.93667e-08 -1.18355e-08 8.90976e-06 1.37047e-09 1.99408e-08
639 2 0.002 -0.110802 -0.0879823 -0.000135037 2.11779e-08 -4.75051e-08 -4.5098e-08 4.70163e-06 1.32321e-09 2.08913e-08
582 2 0.002 -0.114291 -0.0899937 -1.663e-05 9.37061e-09 -2.30005e-08 9.57214e-08 6.50862e-06 1.61102e-09 8.53835e-09
881 2 0.002 -0.0968016 -0.0839253 -0.00134297 -9.71229e-11 1.01844e-08 3.43532e-08 1.8969e-05 2.85912e-08 7.31828e-08
880 2 0.002 -0.0968117 -0.0879212 -0.00160681 1.40575e-08 2.61083e-09 3.53344e-08 1.97271e-05 4.04596e-08 8.23914e-08
696 2 0.002 -0.107315 -0.0899714 -0.000465901 2.746e-08 -4.4156e-08 7.31044e-09 3.46822e-06 8.3314e-10 2.54972e-08
697 2 0.002 -0.107305 -0.0859746 -0.000366509 4.09506e-08 -5.77664e-08 7.58098e-08 2.65532e-06 6.8914e-10 2.74881e-08